fubar                                                                   
SP        UPBE1PBE                                                    6-311+G(d,p)        
Number of atoms                            I                1
Info1-9                                    I   N=           9
          11          10           0           0           0         110
           1          18       -1302
Full Title                                 C   N=           1
fubar       
Route                                      C   N=           3
#PBE1PBE/6-311+G(d,p) scf=tight     
Charge                                     I                2
Multiplicity                               I                2
Number of electrons                        I                3
Number of alpha electrons                  I                2
Number of beta electrons                   I                1
Number of basis functions                  I               22
Number of independent functions            I               22
Number of point charges in /Mol/           I                0
Number of translation vectors              I                0
Atomic numbers                             I   N=           1
           5
Nuclear charges                            R   N=           1
  5.00000000E+00
Current cartesian coordinates              R   N=           3
  0.00000000E+00  0.00000000E+00  0.00000000E+00
Number of symbols in /Mol/                 I                0
Int Atom Types                             I   N=           1
           0
Force Field                                I                0
Atom Types                                 C   N=           1
            
MM charges                                 R   N=           1
  0.00000000E+00
Integer atomic weights                     I   N=           1
          11
Real atomic weights                        R   N=           1
  1.10093053E+01
Atom fragment info                         I   N=           1
           0
Atom residue num                           I   N=           1
           0
Nuclear spins                              I   N=           1
           3
Nuclear ZEff                               R   N=           1
 -2.75000000E+00
Nuclear ZNuc                               R   N=           1
  5.00000000E+00
Nuclear QMom                               R   N=           1
  4.05900000E+00
Nuclear GFac                               R   N=           1
  2.68863700E+00
MicOpt                                     I   N=           1
          -1
Number of residues                         I                0
Number of secondary structures             I                0
SymInf integers                            I   N=          26
           1           8           1           1           1           1
          -1          -1          -1           1          -1          -1
          -1           1          -1          -1          -1          -1
           1           1           1          -1           1           1
           1          -1
RotTr to input orientation                 R   N=          12
  0.00000000E+00  0.00000000E+00 -1.00000000E+00  0.00000000E+00  1.00000000E+00
  0.00000000E+00  1.00000000E+00  0.00000000E+00  0.00000000E+00  0.00000000E+00
  0.00000000E+00  0.00000000E+00
Number of contracted shells                I                6
Number of primitive shells                 I               13
Pure/Cartesian d shells                    I                0
Pure/Cartesian f shells                    I                0
Highest angular momentum                   I                2
Largest degree of contraction              I                6
Shell types                                I   N=           6
           0          -1          -1          -1          -1          -2
Number of primitives per shell             I   N=           6
           6           3           1           1           1           1
Shell to atom map                          I   N=           6
           1           1           1           1           1           1
Primitive exponents                        R   N=          13
  2.85889000E+03  4.28140000E+02  9.75282000E+01  2.79693000E+01  8.21577000E+00
  1.11278000E+00  1.32415000E+01  3.00166000E+00  9.12856000E-01  3.15454000E-01
  9.88563000E-02  3.15000000E-02  4.01000000E-01
Contraction coefficients                   R   N=          13
  2.15374907E-03  1.65822928E-02  8.21869644E-02  2.76617880E-01  6.29315727E-01
  1.73769925E-01  1.17442942E-01  9.18001549E-01 -2.65104870E-03  1.00000000E+00
  1.00000000E+00  1.00000000E+00  1.00000000E+00
P(S=P) Contraction coefficients            R   N=          13
  0.00000000E+00  0.00000000E+00  0.00000000E+00  0.00000000E+00  0.00000000E+00
  0.00000000E+00  4.18099989E-02  2.36574994E-01  8.16213978E-01  1.00000000E+00
  1.00000000E+00  1.00000000E+00  0.00000000E+00
Coordinates of each shell                  R   N=          18
  0.00000000E+00  0.00000000E+00  0.00000000E+00  0.00000000E+00  0.00000000E+00
  0.00000000E+00  0.00000000E+00  0.00000000E+00  0.00000000E+00  0.00000000E+00
  0.00000000E+00  0.00000000E+00  0.00000000E+00  0.00000000E+00  0.00000000E+00
  0.00000000E+00  0.00000000E+00  0.00000000E+00
Num ILSW                                   I              100
ILSW                                       I   N=         100
           1           0           0           0           2           0
           0           0           0           0        1009          -1
           5           0           0           0           0           0
           0           0           0           0           0           0
           1           0           0           0           0           0
           0           0      100000           0          -1           0
           0           0           0           0           0           0
           0           0           0           1           0           0
           0 -2000000000           1           0           0           0
           0           0           4          52           0           0
           0           0          13           0           0           0
           0           0           0           1           0           1
           0           0           0           0           0           0
           0           0           0           0           0           0
           0           0           0           0           0           0
           0           0           0           0           0           0
           0           0           0           0
Num RLSW                                   I               52
RLSW                                       R   N=          52
  7.50000000E-01  7.50000000E-01  1.00000000E+00  1.00000000E+00  2.50000000E-01
  0.00000000E+00  0.00000000E+00  1.00000000E+00  0.00000000E+00  0.00000000E+00
  0.00000000E+00  0.00000000E+00  1.00000000E+00  0.00000000E+00  0.00000000E+00
  0.00000000E+00  0.00000000E+00  1.00000000E+00  0.00000000E+00  0.00000000E+00
  0.00000000E+00  0.00000000E+00  1.00000000E+00  0.00000000E+00  0.00000000E+00
  0.00000000E+00  0.00000000E+00  1.00000000E+00  0.00000000E+00  0.00000000E+00
  0.00000000E+00  0.00000000E+00  1.00000000E+00  0.00000000E+00  0.00000000E+00
  0.00000000E+00  0.00000000E+00  0.00000000E+00  1.00000000E+00  1.00000000E+00
  0.00000000E+00  1.00000000E+00  0.00000000E+00  0.00000000E+00  0.00000000E+00
  0.00000000E+00  0.00000000E+00  0.00000000E+00  0.00000000E+00  0.00000000E+00
  0.00000000E+00  0.00000000E+00
MxBond                                     I                1
NBond                                      I   N=           1
           0
IBond                                      I   N=           1
           0
RBond                                      R   N=           1
  0.00000000E+00
Virial Ratio                               R      2.002952204819602E+00
SCF Energy                                 R     -2.339674077283333E+01
Total Energy                               R     -2.339674077283333E+01
S**2                                       R      7.500012647627509E-01
S**2 after annihilation                    R      7.499999999999998E-01
RMS Density                                R      4.463574996423060E-10
Job Status                                 I                1
Nuclear derivative order                   I                0
External E-field                           R   N=          35
  0.00000000E+00  0.00000000E+00  0.00000000E+00  0.00000000E+00  0.00000000E+00
  0.00000000E+00  0.00000000E+00  0.00000000E+00  0.00000000E+00  0.00000000E+00
  0.00000000E+00  0.00000000E+00  0.00000000E+00  0.00000000E+00  0.00000000E+00
  0.00000000E+00  0.00000000E+00  0.00000000E+00  0.00000000E+00  0.00000000E+00
  0.00000000E+00  0.00000000E+00  0.00000000E+00  0.00000000E+00  0.00000000E+00
  0.00000000E+00  0.00000000E+00  0.00000000E+00  0.00000000E+00  0.00000000E+00
  0.00000000E+00  0.00000000E+00  0.00000000E+00  0.00000000E+00  0.00000000E+00
IOpCl                                      I                1
IROHF                                      I                0
Alpha Orbital Energies                     R   N=          22
 -8.04066972E+00 -1.25148424E+00 -9.16751103E-01 -9.16751103E-01 -9.16751103E-01
 -3.74158018E-01 -3.15745210E-01 -3.15745210E-01 -3.15745210E-01 -1.19378171E-01
 -1.19378171E-01 -1.19378171E-01 -1.08850525E-01  3.80304580E-02  3.80304580E-02
  3.80304580E-02  3.80304581E-02  3.80304581E-02  9.23233429E-01  9.23233429E-01
  9.23233429E-01  1.27353397E+01
Beta Orbital Energies                      R   N=          22
 -8.00429051E+00 -9.67585729E-01 -7.58768188E-01 -7.58768188E-01 -7.58768188E-01
 -3.22485326E-01 -2.74265006E-01 -2.74265006E-01 -2.74265006E-01 -7.96136051E-02
 -7.96136051E-02 -7.96136051E-02 -4.95821656E-02  2.24897843E-01  2.24897843E-01
  2.24897843E-01  2.24897843E-01  2.24897843E-01  1.01931284E+00  1.01931284E+00
  1.01931284E+00  1.27967082E+01
Alpha MO coefficients                      R   N=         484
  5.81038441E-01  4.53772289E-01  0.00000000E+00  0.00000000E+00  0.00000000E+00
  6.53702357E-03  0.00000000E+00  0.00000000E+00  0.00000000E+00 -4.13881659E-03
  0.00000000E+00  0.00000000E+00  0.00000000E+00  1.44993556E-03  0.00000000E+00
  0.00000000E+00  0.00000000E+00  1.66291574E-16  0.00000000E+00  0.00000000E+00
  1.78723098E-16  0.00000000E+00 -1.55157732E-01 -2.43788745E-01  0.00000000E+00
  0.00000000E+00  0.00000000E+00  9.31722875E-01  0.00000000E+00  0.00000000E+00
  0.00000000E+00  1.85431309E-01  0.00000000E+00  0.00000000E+00  0.00000000E+00
 -1.20981779E-02  0.00000000E+00  0.00000000E+00  0.00000000E+00  8.61211812E-16
  0.00000000E+00  0.00000000E+00 -3.02059799E-17  0.00000000E+00  0.00000000E+00
  0.00000000E+00  0.00000000E+00  4.09833011E-01  0.00000000E+00  0.00000000E+00
  0.00000000E+00  5.89307112E-01  0.00000000E+00  0.00000000E+00  0.00000000E+00
  1.57759731E-01  0.00000000E+00  0.00000000E+00  0.00000000E+00 -1.52462976E-02
  0.00000000E+00  0.00000000E+00  0.00000000E+00  0.00000000E+00  0.00000000E+00
  0.00000000E+00  0.00000000E+00  0.00000000E+00  4.09833011E-01  0.00000000E+00
  0.00000000E+00  0.00000000E+00  5.89307112E-01  0.00000000E+00  0.00000000E+00
  0.00000000E+00  1.57759731E-01  0.00000000E+00  0.00000000E+00  0.00000000E+00
 -1.52462976E-02  0.00000000E+00  0.00000000E+00  0.00000000E+00  0.00000000E+00
  0.00000000E+00  0.00000000E+00  0.00000000E+00  0.00000000E+00  0.00000000E+00
  0.00000000E+00  0.00000000E+00  4.09833011E-01  0.00000000E+00  0.00000000E+00
  0.00000000E+00  5.89307112E-01  0.00000000E+00  0.00000000E+00  0.00000000E+00
  1.57759731E-01  0.00000000E+00  0.00000000E+00  0.00000000E+00 -1.52462976E-02
  0.00000000E+00  0.00000000E+00  0.00000000E+00  0.00000000E+00  0.00000000E+00
 -7.21465928E-02 -1.28872311E-01  0.00000000E+00  0.00000000E+00  0.00000000E+00
  9.20242169E-01  0.00000000E+00  0.00000000E+00  0.00000000E+00 -5.07697617E-01
  0.00000000E+00  0.00000000E+00  0.00000000E+00 -8.19059907E-01  0.00000000E+00
  0.00000000E+00  0.00000000E+00  2.27087473E-15  0.00000000E+00  0.00000000E+00
 -1.71906395E-16  0.00000000E+00  0.00000000E+00  0.00000000E+00  0.00000000E+00
 -2.34924507E-01  0.00000000E+00  0.00000000E+00  0.00000000E+00 -3.88749631E-01
  0.00000000E+00  0.00000000E+00  0.00000000E+00  6.55797514E-01  0.00000000E+00
  0.00000000E+00  0.00000000E+00  5.46655967E-01  0.00000000E+00  0.00000000E+00
  0.00000000E+00  0.00000000E+00  0.00000000E+00  0.00000000E+00  0.00000000E+00
  0.00000000E+00  0.00000000E+00  0.00000000E+00 -2.34924507E-01  0.00000000E+00
  0.00000000E+00  0.00000000E+00 -3.88749631E-01  0.00000000E+00  0.00000000E+00
  0.00000000E+00  6.55797514E-01  0.00000000E+00  0.00000000E+00  0.00000000E+00
  5.46655967E-01  0.00000000E+00  0.00000000E+00  0.00000000E+00  0.00000000E+00
  0.00000000E+00  0.00000000E+00  0.00000000E+00 -2.34924507E-01  0.00000000E+00
  0.00000000E+00  0.00000000E+00 -3.88749631E-01  0.00000000E+00  0.00000000E+00
  0.00000000E+00  6.55797514E-01  0.00000000E+00  0.00000000E+00  0.00000000E+00
  5.46655967E-01  0.00000000E+00  0.00000000E+00  0.00000000E+00  0.00000000E+00
  0.00000000E+00  0.00000000E+00  0.00000000E+00  0.00000000E+00  0.00000000E+00
  0.00000000E+00 -2.34786465E-01  0.00000000E+00  0.00000000E+00  0.00000000E+00
 -4.77084635E-01  0.00000000E+00  0.00000000E+00  0.00000000E+00  1.56638459E+00
  0.00000000E+00  0.00000000E+00  0.00000000E+00 -1.32381599E+00  0.00000000E+00
  0.00000000E+00  0.00000000E+00  0.00000000E+00  0.00000000E+00  0.00000000E+00
  0.00000000E+00  0.00000000E+00 -2.34786465E-01  0.00000000E+00  0.00000000E+00
  0.00000000E+00 -4.77084635E-01  0.00000000E+00  0.00000000E+00  0.00000000E+00
  1.56638459E+00  0.00000000E+00  0.00000000E+00  0.00000000E+00 -1.32381599E+00
  0.00000000E+00  0.00000000E+00  0.00000000E+00  0.00000000E+00  0.00000000E+00
  0.00000000E+00  0.00000000E+00  0.00000000E+00  0.00000000E+00  0.00000000E+00
  0.00000000E+00 -2.34786465E-01  0.00000000E+00  0.00000000E+00  0.00000000E+00
 -4.77084635E-01  0.00000000E+00  0.00000000E+00  0.00000000E+00  1.56638459E+00
  0.00000000E+00  0.00000000E+00  0.00000000E+00 -1.32381599E+00  0.00000000E+00
  0.00000000E+00  0.00000000E+00  0.00000000E+00  0.00000000E+00  8.52156586E-02
  1.65965249E-01  0.00000000E+00  0.00000000E+00  0.00000000E+00 -1.59163306E+00
  0.00000000E+00  0.00000000E+00  0.00000000E+00  2.78699786E+00  0.00000000E+00
  0.00000000E+00  0.00000000E+00 -1.72155181E+00  0.00000000E+00  0.00000000E+00
  0.00000000E+00 -1.14531251E-14  0.00000000E+00  0.00000000E+00 -3.41880148E-15
  0.00000000E+00  0.00000000E+00  0.00000000E+00  0.00000000E+00  0.00000000E+00
  0.00000000E+00  0.00000000E+00  0.00000000E+00  0.00000000E+00  0.00000000E+00
  0.00000000E+00  0.00000000E+00  0.00000000E+00  0.00000000E+00  0.00000000E+00
  0.00000000E+00  0.00000000E+00  0.00000000E+00  0.00000000E+00  0.00000000E+00
  0.00000000E+00  0.00000000E+00  1.00000000E+00  0.00000000E+00  0.00000000E+00
  0.00000000E+00  0.00000000E+00  0.00000000E+00  0.00000000E+00  0.00000000E+00
  0.00000000E+00  0.00000000E+00  0.00000000E+00  0.00000000E+00  0.00000000E+00
  0.00000000E+00  0.00000000E+00  0.00000000E+00  0.00000000E+00  0.00000000E+00
  0.00000000E+00  1.00000000E+00  0.00000000E+00  0.00000000E+00  0.00000000E+00
  0.00000000E+00  0.00000000E+00  0.00000000E+00  0.00000000E+00  0.00000000E+00
  0.00000000E+00  0.00000000E+00  0.00000000E+00  0.00000000E+00  0.00000000E+00
  0.00000000E+00  0.00000000E+00  0.00000000E+00  0.00000000E+00  0.00000000E+00
  0.00000000E+00  0.00000000E+00  0.00000000E+00  0.00000000E+00  1.00000000E+00
  0.00000000E+00  0.00000000E+00 -4.93670479E-16 -7.59565910E-16  0.00000000E+00
  0.00000000E+00  0.00000000E+00  6.78135639E-15  0.00000000E+00  0.00000000E+00
  0.00000000E+00 -9.42013094E-15  0.00000000E+00  0.00000000E+00  0.00000000E+00
  4.37684375E-15  0.00000000E+00  0.00000000E+00  0.00000000E+00 -5.20829915E-01
  0.00000000E+00  0.00000000E+00  8.53660471E-01  0.00000000E+00  1.32609514E-15
  2.14662814E-15  0.00000000E+00  0.00000000E+00  0.00000000E+00 -2.07967565E-14
  0.00000000E+00  0.00000000E+00  0.00000000E+00  3.39928230E-14  0.00000000E+00
  0.00000000E+00  0.00000000E+00 -1.94634872E-14  0.00000000E+00  0.00000000E+00
  0.00000000E+00  8.53660471E-01  0.00000000E+00  0.00000000E+00  5.20829915E-01
  0.00000000E+00  0.00000000E+00  0.00000000E+00  0.00000000E+00 -1.31715752E+00
  0.00000000E+00  0.00000000E+00  0.00000000E+00  1.79486123E+00  0.00000000E+00
  0.00000000E+00  0.00000000E+00 -1.15096026E+00  0.00000000E+00  0.00000000E+00
  0.00000000E+00  4.17545033E-01  0.00000000E+00  0.00000000E+00  0.00000000E+00
  0.00000000E+00  0.00000000E+00  0.00000000E+00  0.00000000E+00  0.00000000E+00
  0.00000000E+00  0.00000000E+00 -1.31715752E+00  0.00000000E+00  0.00000000E+00
  0.00000000E+00  1.79486123E+00  0.00000000E+00  0.00000000E+00  0.00000000E+00
 -1.15096026E+00  0.00000000E+00  0.00000000E+00  0.00000000E+00  4.17545033E-01
  0.00000000E+00  0.00000000E+00  0.00000000E+00  0.00000000E+00  0.00000000E+00
  0.00000000E+00  0.00000000E+00 -1.31715752E+00  0.00000000E+00  0.00000000E+00
  0.00000000E+00  1.79486123E+00  0.00000000E+00  0.00000000E+00  0.00000000E+00
 -1.15096026E+00  0.00000000E+00  0.00000000E+00  0.00000000E+00  4.17545033E-01
  0.00000000E+00  0.00000000E+00  0.00000000E+00  0.00000000E+00  0.00000000E+00
  0.00000000E+00  0.00000000E+00 -1.88480832E+00  2.06859709E+00  0.00000000E+00
  0.00000000E+00  0.00000000E+00 -5.51679272E-01  0.00000000E+00  0.00000000E+00
  0.00000000E+00  4.39212508E-01  0.00000000E+00  0.00000000E+00  0.00000000E+00
 -1.58561235E-01  0.00000000E+00  0.00000000E+00  0.00000000E+00  1.26240281E-16
  0.00000000E+00  0.00000000E+00 -4.17776253E-17  0.00000000E+00
Beta MO coefficients                       R   N=         484
  5.78936549E-01  4.55965385E-01  0.00000000E+00  0.00000000E+00  0.00000000E+00
  6.47031805E-03  0.00000000E+00  0.00000000E+00  0.00000000E+00 -4.32148619E-03
  0.00000000E+00  0.00000000E+00  0.00000000E+00  1.53104429E-03  0.00000000E+00
  0.00000000E+00  0.00000000E+00 -9.00146694E-16  0.00000000E+00  0.00000000E+00
 -3.10262515E-16  0.00000000E+00 -1.56312349E-01 -2.35957270E-01  0.00000000E+00
  0.00000000E+00  0.00000000E+00  9.00362770E-01  0.00000000E+00  0.00000000E+00
  0.00000000E+00  2.08578700E-01  0.00000000E+00  0.00000000E+00  0.00000000E+00
  4.68367822E-03  0.00000000E+00  0.00000000E+00  0.00000000E+00  9.81073277E-16
  0.00000000E+00  0.00000000E+00  5.12528478E-16  0.00000000E+00  0.00000000E+00
  0.00000000E+00  0.00000000E+00  4.60824656E-01  0.00000000E+00  0.00000000E+00
  0.00000000E+00  5.19869054E-01  0.00000000E+00  0.00000000E+00  0.00000000E+00
  1.93836628E-01  0.00000000E+00  0.00000000E+00  0.00000000E+00 -1.43648544E-02
  0.00000000E+00  0.00000000E+00  0.00000000E+00  0.00000000E+00  0.00000000E+00
  0.00000000E+00  0.00000000E+00  0.00000000E+00  0.00000000E+00  0.00000000E+00
  4.60824656E-01  0.00000000E+00  0.00000000E+00  0.00000000E+00  5.19869054E-01
  0.00000000E+00  0.00000000E+00  0.00000000E+00  1.93836628E-01  0.00000000E+00
  0.00000000E+00  0.00000000E+00 -1.43648544E-02  0.00000000E+00  0.00000000E+00
  0.00000000E+00  0.00000000E+00  0.00000000E+00  0.00000000E+00  0.00000000E+00
  4.60824656E-01  0.00000000E+00  0.00000000E+00  0.00000000E+00  5.19869054E-01
  0.00000000E+00  0.00000000E+00  0.00000000E+00  1.93836628E-01  0.00000000E+00
  0.00000000E+00  0.00000000E+00 -1.43648544E-02  0.00000000E+00  0.00000000E+00
  0.00000000E+00  0.00000000E+00  0.00000000E+00  0.00000000E+00  0.00000000E+00
  6.30490520E-02  1.06464921E-01  0.00000000E+00  0.00000000E+00  0.00000000E+00
 -6.82505564E-01  0.00000000E+00  0.00000000E+00  0.00000000E+00  5.77414763E-02
  0.00000000E+00  0.00000000E+00  0.00000000E+00  1.07972960E+00  0.00000000E+00
  0.00000000E+00  0.00000000E+00 -1.00688979E-15  0.00000000E+00  0.00000000E+00
  3.38027010E-16  0.00000000E+00  0.00000000E+00  0.00000000E+00 -2.00298171E-01
  0.00000000E+00  0.00000000E+00  0.00000000E+00 -3.00743921E-01  0.00000000E+00
  0.00000000E+00  0.00000000E+00  3.72019020E-01  0.00000000E+00  0.00000000E+00
  0.00000000E+00  7.66908723E-01  0.00000000E+00  0.00000000E+00  0.00000000E+00
  0.00000000E+00  0.00000000E+00  0.00000000E+00  0.00000000E+00  0.00000000E+00
  0.00000000E+00  0.00000000E+00 -2.00298171E-01  0.00000000E+00  0.00000000E+00
  0.00000000E+00 -3.00743921E-01  0.00000000E+00  0.00000000E+00  0.00000000E+00
  3.72019020E-01  0.00000000E+00  0.00000000E+00  0.00000000E+00  7.66908723E-01
  0.00000000E+00  0.00000000E+00  0.00000000E+00  0.00000000E+00  0.00000000E+00
  0.00000000E+00  0.00000000E+00  0.00000000E+00  0.00000000E+00  0.00000000E+00
 -2.00298171E-01  0.00000000E+00  0.00000000E+00  0.00000000E+00 -3.00743921E-01
  0.00000000E+00  0.00000000E+00  0.00000000E+00  3.72019020E-01  0.00000000E+00
  0.00000000E+00  0.00000000E+00  7.66908723E-01  0.00000000E+00  0.00000000E+00
  0.00000000E+00  0.00000000E+00  0.00000000E+00  0.00000000E+00  0.00000000E+00
 -2.52543159E-01  0.00000000E+00  0.00000000E+00  0.00000000E+00 -5.54331661E-01
  0.00000000E+00  0.00000000E+00  0.00000000E+00  1.67060179E+00  0.00000000E+00
  0.00000000E+00  0.00000000E+00 -1.21565780E+00  0.00000000E+00  0.00000000E+00
  0.00000000E+00  0.00000000E+00  0.00000000E+00  0.00000000E+00  0.00000000E+00
  0.00000000E+00  0.00000000E+00  0.00000000E+00 -2.52543159E-01  0.00000000E+00
  0.00000000E+00  0.00000000E+00 -5.54331661E-01  0.00000000E+00  0.00000000E+00
  0.00000000E+00  1.67060179E+00  0.00000000E+00  0.00000000E+00  0.00000000E+00
 -1.21565780E+00  0.00000000E+00  0.00000000E+00  0.00000000E+00  0.00000000E+00
  0.00000000E+00  0.00000000E+00  0.00000000E+00  0.00000000E+00  0.00000000E+00
  0.00000000E+00 -2.52543159E-01  0.00000000E+00  0.00000000E+00  0.00000000E+00
 -5.54331661E-01  0.00000000E+00  0.00000000E+00  0.00000000E+00  1.67060179E+00
  0.00000000E+00  0.00000000E+00  0.00000000E+00 -1.21565780E+00  0.00000000E+00
  0.00000000E+00  0.00000000E+00  0.00000000E+00  0.00000000E+00  9.72843878E-02
  1.85472271E-01  0.00000000E+00  0.00000000E+00  0.00000000E+00 -1.72308600E+00
  0.00000000E+00  0.00000000E+00  0.00000000E+00  2.83059549E+00  0.00000000E+00
  0.00000000E+00  0.00000000E+00 -1.57129225E+00  0.00000000E+00  0.00000000E+00
  0.00000000E+00 -4.96952809E-15  0.00000000E+00  0.00000000E+00 -1.07746270E-15
  0.00000000E+00  0.00000000E+00  0.00000000E+00  0.00000000E+00  0.00000000E+00
  0.00000000E+00  0.00000000E+00  0.00000000E+00  0.00000000E+00  0.00000000E+00
  0.00000000E+00  0.00000000E+00  0.00000000E+00  0.00000000E+00  0.00000000E+00
  0.00000000E+00  0.00000000E+00  0.00000000E+00  0.00000000E+00  1.00000000E+00
  0.00000000E+00  0.00000000E+00  0.00000000E+00  0.00000000E+00  0.00000000E+00
  0.00000000E+00  0.00000000E+00  0.00000000E+00  0.00000000E+00  0.00000000E+00
  0.00000000E+00  0.00000000E+00  0.00000000E+00  0.00000000E+00  0.00000000E+00
  0.00000000E+00  0.00000000E+00  0.00000000E+00  0.00000000E+00  0.00000000E+00
  0.00000000E+00  0.00000000E+00  0.00000000E+00  0.00000000E+00  1.00000000E+00
  0.00000000E+00  0.00000000E+00  0.00000000E+00  0.00000000E+00  0.00000000E+00
  0.00000000E+00  0.00000000E+00  0.00000000E+00  0.00000000E+00  0.00000000E+00
  0.00000000E+00  0.00000000E+00  0.00000000E+00  0.00000000E+00  0.00000000E+00
  0.00000000E+00  0.00000000E+00  0.00000000E+00  0.00000000E+00  1.00000000E+00
  0.00000000E+00  0.00000000E+00 -2.88766378E-16 -3.96332541E-16  0.00000000E+00
  0.00000000E+00  0.00000000E+00  3.60600425E-15  0.00000000E+00  0.00000000E+00
  0.00000000E+00 -5.18904835E-15  0.00000000E+00  0.00000000E+00  0.00000000E+00
  2.40081499E-15  0.00000000E+00  0.00000000E+00  0.00000000E+00 -4.12081521E-01
  0.00000000E+00  0.00000000E+00  9.11146980E-01  0.00000000E+00  1.00396792E-15
  1.34380705E-15  0.00000000E+00  0.00000000E+00  0.00000000E+00 -1.17964956E-14
  0.00000000E+00  0.00000000E+00  0.00000000E+00  1.65512121E-14  0.00000000E+00
  0.00000000E+00  0.00000000E+00 -8.06425337E-15  0.00000000E+00  0.00000000E+00
  0.00000000E+00  9.11146980E-01  0.00000000E+00  0.00000000E+00  4.12081521E-01
  0.00000000E+00  0.00000000E+00  0.00000000E+00  0.00000000E+00 -1.30266053E+00
  0.00000000E+00  0.00000000E+00  0.00000000E+00  1.81095318E+00  0.00000000E+00
  0.00000000E+00  0.00000000E+00 -1.12532110E+00  0.00000000E+00  0.00000000E+00
  0.00000000E+00  3.99648087E-01  0.00000000E+00  0.00000000E+00  0.00000000E+00
  0.00000000E+00  0.00000000E+00  0.00000000E+00  0.00000000E+00  0.00000000E+00
 -1.30266053E+00  0.00000000E+00  0.00000000E+00  0.00000000E+00  1.81095318E+00
  0.00000000E+00  0.00000000E+00  0.00000000E+00 -1.12532110E+00  0.00000000E+00
  0.00000000E+00  0.00000000E+00  3.99648087E-01  0.00000000E+00  0.00000000E+00
  0.00000000E+00  0.00000000E+00  0.00000000E+00  0.00000000E+00  0.00000000E+00
  0.00000000E+00  0.00000000E+00  0.00000000E+00  0.00000000E+00 -1.30266053E+00
  0.00000000E+00  0.00000000E+00  0.00000000E+00  1.81095318E+00  0.00000000E+00
  0.00000000E+00  0.00000000E+00 -1.12532110E+00  0.00000000E+00  0.00000000E+00
  0.00000000E+00  3.99648087E-01  0.00000000E+00  0.00000000E+00  0.00000000E+00
  0.00000000E+00  0.00000000E+00 -1.88510168E+00  2.06864054E+00  0.00000000E+00
  0.00000000E+00  0.00000000E+00 -5.54172841E-01  0.00000000E+00  0.00000000E+00
  0.00000000E+00  4.39653099E-01  0.00000000E+00  0.00000000E+00  0.00000000E+00
 -1.58399072E-01  0.00000000E+00  0.00000000E+00  0.00000000E+00  1.29111793E-16
  0.00000000E+00  0.00000000E+00 -4.04564488E-17  0.00000000E+00
Orthonormal basis                          R   N=         484
  2.20797284E-01  2.44739916E-01  0.00000000E+00  0.00000000E+00  0.00000000E+00
  3.17216832E-01  0.00000000E+00  0.00000000E+00  0.00000000E+00  3.16446712E-01
  0.00000000E+00  0.00000000E+00  0.00000000E+00  2.52983204E-01  0.00000000E+00
  0.00000000E+00  0.00000000E+00 -2.09373514E-17  0.00000000E+00  0.00000000E+00
  2.09373514E-17  0.00000000E+00  4.61749599E-01  4.38802802E-01  0.00000000E+00
  0.00000000E+00  0.00000000E+00 -8.86709436E-02  0.00000000E+00  0.00000000E+00
  0.00000000E+00 -3.00746831E-01  0.00000000E+00  0.00000000E+00  0.00000000E+00
 -3.40130709E-01  0.00000000E+00  0.00000000E+00  0.00000000E+00  5.43865477E-17
  0.00000000E+00  0.00000000E+00 -5.43865477E-17  0.00000000E+00 -3.92746622E-30
  8.46277571E-30  0.00000000E+00  0.00000000E+00  0.00000000E+00 -2.42746860E-29
  0.00000000E+00  0.00000000E+00  0.00000000E+00  3.75975048E-29  0.00000000E+00
  0.00000000E+00  0.00000000E+00 -2.13795293E-29  0.00000000E+00  0.00000000E+00
  0.00000000E+00  7.07106781E-01  0.00000000E+00  0.00000000E+00  7.07106781E-01
  0.00000000E+00 -4.03063233E-17 -3.32192766E-17  0.00000000E+00  0.00000000E+00
  0.00000000E+00  7.13922023E-17  0.00000000E+00  0.00000000E+00  0.00000000E+00
 -4.29448159E-17  0.00000000E+00  0.00000000E+00  0.00000000E+00  1.49290556E-16
  0.00000000E+00  0.00000000E+00  0.00000000E+00  7.07106781E-01  0.00000000E+00
  0.00000000E+00 -7.07106781E-01  0.00000000E+00 -3.68459642E-01 -8.05597253E-02
  0.00000000E+00  0.00000000E+00  0.00000000E+00  9.76905517E-01  0.00000000E+00
  0.00000000E+00  0.00000000E+00  9.10528333E-02  0.00000000E+00  0.00000000E+00
  0.00000000E+00 -9.39323918E-01  0.00000000E+00  0.00000000E+00  0.00000000E+00
  4.01489061E-17  0.00000000E+00  0.00000000E+00 -4.01489061E-17  0.00000000E+00
 -1.76988531E+00  1.82655534E+00  0.00000000E+00  0.00000000E+00  0.00000000E+00
  8.31502523E-02  0.00000000E+00  0.00000000E+00  0.00000000E+00 -7.05353029E-01
  0.00000000E+00  0.00000000E+00  0.00000000E+00  5.55708261E-01  0.00000000E+00
  0.00000000E+00  0.00000000E+00 -9.02899546E-17  0.00000000E+00  0.00000000E+00
  9.02899546E-17  0.00000000E+00 -6.29625441E-01  9.96668901E-01  0.00000000E+00
  0.00000000E+00  0.00000000E+00 -1.86625141E+00  0.00000000E+00  0.00000000E+00
  0.00000000E+00  2.74882207E+00  0.00000000E+00  0.00000000E+00  0.00000000E+00
 -1.51296378E+00  0.00000000E+00  0.00000000E+00  0.00000000E+00  3.33589587E-16
  0.00000000E+00  0.00000000E+00 -3.33589587E-16  0.00000000E+00  0.00000000E+00
  0.00000000E+00  0.00000000E+00  0.00000000E+00  0.00000000E+00  0.00000000E+00
  0.00000000E+00  0.00000000E+00  0.00000000E+00  0.00000000E+00  0.00000000E+00
  0.00000000E+00  0.00000000E+00  0.00000000E+00  0.00000000E+00  0.00000000E+00
  0.00000000E+00  0.00000000E+00  0.00000000E+00  0.00000000E+00  0.00000000E+00
  1.00000000E+00  0.00000000E+00  0.00000000E+00  0.00000000E+00  0.00000000E+00
  0.00000000E+00  0.00000000E+00  0.00000000E+00  0.00000000E+00  0.00000000E+00
  0.00000000E+00  0.00000000E+00  0.00000000E+00  0.00000000E+00  0.00000000E+00
  0.00000000E+00  0.00000000E+00  0.00000000E+00  0.00000000E+00  1.00000000E+00
  0.00000000E+00  0.00000000E+00  0.00000000E+00  0.00000000E+00  0.00000000E+00
  0.00000000E+00  0.00000000E+00  0.00000000E+00  0.00000000E+00  0.00000000E+00
  0.00000000E+00  0.00000000E+00  0.00000000E+00  0.00000000E+00  0.00000000E+00
  0.00000000E+00  0.00000000E+00  0.00000000E+00  0.00000000E+00  0.00000000E+00
  0.00000000E+00  0.00000000E+00  1.00000000E+00  0.00000000E+00  0.00000000E+00
  0.00000000E+00  0.00000000E+00  0.00000000E+00  0.00000000E+00  2.64713356E-01
  0.00000000E+00  0.00000000E+00  0.00000000E+00  3.73230619E-01  0.00000000E+00
  0.00000000E+00  0.00000000E+00  3.78748627E-01  0.00000000E+00  0.00000000E+00
  0.00000000E+00  2.77688075E-01  0.00000000E+00  0.00000000E+00  0.00000000E+00
  0.00000000E+00  0.00000000E+00  0.00000000E+00  0.00000000E+00  0.00000000E+00
  0.00000000E+00  5.99191960E-01  0.00000000E+00  0.00000000E+00  0.00000000E+00
  3.04989471E-01  0.00000000E+00  0.00000000E+00  0.00000000E+00 -2.96244438E-01