fubar                                                                   
SP        RPBE1PBE                                                    6-311+G(d,p)        
Number of atoms                            I                1
Info1-9                                    I   N=           9
          11          10           0           0           0         110
           1          18       -1302
Full Title                                 C   N=           1
fubar       
Route                                      C   N=           3
#PBE1PBE/6-311+G(d,p) scf=tight     
Charge                                     I               -2
Multiplicity                               I                1
Number of electrons                        I               10
Number of alpha electrons                  I                5
Number of beta electrons                   I                5
Number of basis functions                  I               22
Number of independent functions            I               22
Number of point charges in /Mol/           I                0
Number of translation vectors              I                0
Atomic numbers                             I   N=           1
           8
Nuclear charges                            R   N=           1
  8.00000000E+00
Current cartesian coordinates              R   N=           3
  0.00000000E+00  0.00000000E+00  0.00000000E+00
Number of symbols in /Mol/                 I                0
Int Atom Types                             I   N=           1
           0
Force Field                                I                0
Atom Types                                 C   N=           1
            
MM charges                                 R   N=           1
  0.00000000E+00
Integer atomic weights                     I   N=           1
          16
Real atomic weights                        R   N=           1
  1.59949146E+01
Atom fragment info                         I   N=           1
           0
Atom residue num                           I   N=           1
           0
Nuclear spins                              I   N=           1
           0
Nuclear ZEff                               R   N=           1
 -5.60000000E+00
Nuclear ZNuc                               R   N=           1
  8.00000000E+00
Nuclear QMom                               R   N=           1
  0.00000000E+00
Nuclear GFac                               R   N=           1
  0.00000000E+00
MicOpt                                     I   N=           1
          -1
Number of residues                         I                0
Number of secondary structures             I                0
SymInf integers                            I   N=          26
           1           8           1           1           1           1
          -1          -1          -1           1          -1          -1
          -1           1          -1          -1          -1          -1
           1           1           1          -1           1           1
           1          -1
RotTr to input orientation                 R   N=          12
  0.00000000E+00  0.00000000E+00 -1.00000000E+00  0.00000000E+00  1.00000000E+00
  0.00000000E+00  1.00000000E+00  0.00000000E+00  0.00000000E+00  0.00000000E+00
  0.00000000E+00  0.00000000E+00
Number of contracted shells                I                6
Number of primitive shells                 I               13
Pure/Cartesian d shells                    I                0
Pure/Cartesian f shells                    I                0
Highest angular momentum                   I                2
Largest degree of contraction              I                6
Shell types                                I   N=           6
           0          -1          -1          -1          -1          -2
Number of primitives per shell             I   N=           6
           6           3           1           1           1           1
Shell to atom map                          I   N=           6
           1           1           1           1           1           1
Primitive exponents                        R   N=          13
  8.58850000E+03  1.29723000E+03  2.99296000E+02  8.73771000E+01  2.56789000E+01
  3.74004000E+00  4.21175000E+01  9.62837000E+00  2.85332000E+00  9.05661000E-01
  2.55611000E-01  8.45000000E-02  1.29200000E+00
Contraction coefficients                   R   N=          13
  1.89515008E-03  1.43859006E-02  7.07320031E-02  2.40001011E-01  5.94797026E-01
  2.80802012E-01  1.13889012E-01  9.20811101E-01 -3.27447036E-03  1.00000000E+00
  1.00000000E+00  1.00000000E+00  1.00000000E+00
P(S=P) Contraction coefficients            R   N=          13
  0.00000000E+00  0.00000000E+00  0.00000000E+00  0.00000000E+00  0.00000000E+00
  0.00000000E+00  3.65113974E-02  2.37152983E-01  8.19701941E-01  1.00000000E+00
  1.00000000E+00  1.00000000E+00  0.00000000E+00
Coordinates of each shell                  R   N=          18
  0.00000000E+00  0.00000000E+00  0.00000000E+00  0.00000000E+00  0.00000000E+00
  0.00000000E+00  0.00000000E+00  0.00000000E+00  0.00000000E+00  0.00000000E+00
  0.00000000E+00  0.00000000E+00  0.00000000E+00  0.00000000E+00  0.00000000E+00
  0.00000000E+00  0.00000000E+00  0.00000000E+00
Num ILSW                                   I              100
ILSW                                       I   N=         100
           0           0           0           0           2           0
           0           0           0           0        1009          -1
           5           0           0           0           0           0
           0           0           0           0           0           0
           1           0           0           0           0           0
           0           0      100000           0          -1           0
           0           0           0           0           0           0
           0           0           0           1           0           0
           0 -2000000000           1           0           0           0
           0           0           4          52           0           0
           0           0          13           0           0           0
           0           0           0           1           0           1
           0           0           0           0           0           0
           0           0           0           0           0           0
           0           0           0           0           0           0
           0           0           0           0           0           0
           0           0           0           0
Num RLSW                                   I               52
RLSW                                       R   N=          52
  7.50000000E-01  7.50000000E-01  1.00000000E+00  1.00000000E+00  2.50000000E-01
  0.00000000E+00  0.00000000E+00  1.00000000E+00  0.00000000E+00  0.00000000E+00
  0.00000000E+00  0.00000000E+00  1.00000000E+00  0.00000000E+00  0.00000000E+00
  0.00000000E+00  0.00000000E+00  1.00000000E+00  0.00000000E+00  0.00000000E+00
  0.00000000E+00  0.00000000E+00  1.00000000E+00  0.00000000E+00  0.00000000E+00
  0.00000000E+00  0.00000000E+00  1.00000000E+00  0.00000000E+00  0.00000000E+00
  0.00000000E+00  0.00000000E+00  1.00000000E+00  0.00000000E+00  0.00000000E+00
  0.00000000E+00  0.00000000E+00  0.00000000E+00  1.00000000E+00  1.00000000E+00
  0.00000000E+00  1.00000000E+00  0.00000000E+00  0.00000000E+00  0.00000000E+00
  0.00000000E+00  0.00000000E+00  0.00000000E+00  0.00000000E+00  0.00000000E+00
  0.00000000E+00  0.00000000E+00
MxBond                                     I                1
NBond                                      I   N=           1
           0
IBond                                      I   N=           1
           0
RBond                                      R   N=           1
  0.00000000E+00
Virial Ratio                               R      2.000211446910332E+00
SCF Energy                                 R     -7.478562561457247E+01
Total Energy                               R     -7.478562561457247E+01
RMS Density                                R      4.260712616591028E-09
Job Status                                 I                1
Nuclear derivative order                   I                0
External E-field                           R   N=          35
  0.00000000E+00  0.00000000E+00  0.00000000E+00  0.00000000E+00  0.00000000E+00
  0.00000000E+00  0.00000000E+00  0.00000000E+00  0.00000000E+00  0.00000000E+00
  0.00000000E+00  0.00000000E+00  0.00000000E+00  0.00000000E+00  0.00000000E+00
  0.00000000E+00  0.00000000E+00  0.00000000E+00  0.00000000E+00  0.00000000E+00
  0.00000000E+00  0.00000000E+00  0.00000000E+00  0.00000000E+00  0.00000000E+00
  0.00000000E+00  0.00000000E+00  0.00000000E+00  0.00000000E+00  0.00000000E+00
  0.00000000E+00  0.00000000E+00  0.00000000E+00  0.00000000E+00  0.00000000E+00
IOpCl                                      I                0
IROHF                                      I                0
Alpha Orbital Energies                     R   N=          22
 -1.85676603E+01 -2.34389500E-01  3.32933713E-01  3.32933713E-01  3.32933713E-01
  5.68817456E-01  6.13797241E-01  6.13797241E-01  6.13797241E-01  1.62076078E+00
  1.62076078E+00  1.62076078E+00  1.85665930E+00  3.50345482E+00  3.50345482E+00
  3.50345482E+00  3.50345482E+00  3.50345482E+00  5.62133765E+00  5.62133765E+00
  5.62133765E+00  5.04965728E+01
Alpha MO coefficients                      R   N=         484
  5.51799730E-01  4.69884672E-01  0.00000000E+00  0.00000000E+00  0.00000000E+00
  1.07598651E-02  0.00000000E+00  0.00000000E+00  0.00000000E+00 -4.77617129E-03
  0.00000000E+00  0.00000000E+00  0.00000000E+00  1.82973003E-03  0.00000000E+00
  0.00000000E+00  0.00000000E+00 -4.71441862E-16  0.00000000E+00  0.00000000E+00
  1.89346560E-16  0.00000000E+00 -1.26183088E-01 -2.03891617E-01  0.00000000E+00
  0.00000000E+00  0.00000000E+00  6.00940474E-01  0.00000000E+00  0.00000000E+00
  0.00000000E+00  4.72089127E-01  0.00000000E+00  0.00000000E+00  0.00000000E+00
  6.84059089E-02  0.00000000E+00  0.00000000E+00  0.00000000E+00  2.86017407E-16
  0.00000000E+00  0.00000000E+00 -2.71982159E-16  0.00000000E+00  0.00000000E+00
  0.00000000E+00  0.00000000E+00  2.58076788E-01  0.00000000E+00  0.00000000E+00
  0.00000000E+00  3.91722374E-01  0.00000000E+00  0.00000000E+00  0.00000000E+00
  2.78668799E-01  0.00000000E+00  0.00000000E+00  0.00000000E+00  4.10018446E-01
  0.00000000E+00  0.00000000E+00  0.00000000E+00  0.00000000E+00  0.00000000E+00
  0.00000000E+00  0.00000000E+00  0.00000000E+00  2.58076788E-01  0.00000000E+00
  0.00000000E+00  0.00000000E+00  3.91722374E-01  0.00000000E+00  0.00000000E+00
  0.00000000E+00  2.78668799E-01  0.00000000E+00  0.00000000E+00  0.00000000E+00
  4.10018446E-01  0.00000000E+00  0.00000000E+00  0.00000000E+00  0.00000000E+00
  0.00000000E+00  0.00000000E+00  0.00000000E+00  0.00000000E+00  0.00000000E+00
  0.00000000E+00  0.00000000E+00  2.58076788E-01  0.00000000E+00  0.00000000E+00
  0.00000000E+00  3.91722374E-01  0.00000000E+00  0.00000000E+00  0.00000000E+00
  2.78668799E-01  0.00000000E+00  0.00000000E+00  0.00000000E+00  4.10018446E-01
  0.00000000E+00  0.00000000E+00  0.00000000E+00  0.00000000E+00  0.00000000E+00
  3.85451216E-02  5.79716321E-02  0.00000000E+00  0.00000000E+00  0.00000000E+00
 -7.31769576E-02  0.00000000E+00  0.00000000E+00  0.00000000E+00 -1.11962347E+00
  0.00000000E+00  0.00000000E+00  0.00000000E+00  1.63106716E+00  0.00000000E+00
  0.00000000E+00  0.00000000E+00 -2.21172262E-16  0.00000000E+00  0.00000000E+00
  2.78171307E-17  0.00000000E+00  0.00000000E+00  0.00000000E+00  0.00000000E+00
  0.00000000E+00 -1.90545564E-01  0.00000000E+00  0.00000000E+00  0.00000000E+00
 -1.73393951E-01  0.00000000E+00  0.00000000E+00  0.00000000E+00 -7.27198375E-01
  0.00000000E+00  0.00000000E+00  0.00000000E+00  1.23544097E+00  0.00000000E+00
  0.00000000E+00  0.00000000E+00  0.00000000E+00  0.00000000E+00  0.00000000E+00
  0.00000000E+00  0.00000000E+00 -1.90545564E-01  0.00000000E+00  0.00000000E+00
  0.00000000E+00 -1.73393951E-01  0.00000000E+00  0.00000000E+00  0.00000000E+00
 -7.27198375E-01  0.00000000E+00  0.00000000E+00  0.00000000E+00  1.23544097E+00
  0.00000000E+00  0.00000000E+00  0.00000000E+00  0.00000000E+00  0.00000000E+00
  0.00000000E+00  0.00000000E+00  0.00000000E+00 -1.90545564E-01  0.00000000E+00
  0.00000000E+00  0.00000000E+00 -1.73393951E-01  0.00000000E+00  0.00000000E+00
  0.00000000E+00 -7.27198375E-01  0.00000000E+00  0.00000000E+00  0.00000000E+00
  1.23544097E+00  0.00000000E+00  0.00000000E+00  0.00000000E+00  0.00000000E+00
  0.00000000E+00  0.00000000E+00  0.00000000E+00  0.00000000E+00  0.00000000E+00
  0.00000000E+00  0.00000000E+00 -2.69793852E-01  0.00000000E+00  0.00000000E+00
  0.00000000E+00 -8.73872583E-01  0.00000000E+00  0.00000000E+00  0.00000000E+00
  1.59097500E+00  0.00000000E+00  0.00000000E+00  0.00000000E+00 -6.97981786E-01
  0.00000000E+00  0.00000000E+00  0.00000000E+00  0.00000000E+00  0.00000000E+00
  0.00000000E+00  0.00000000E+00 -2.69793852E-01  0.00000000E+00  0.00000000E+00
  0.00000000E+00 -8.73872583E-01  0.00000000E+00  0.00000000E+00  0.00000000E+00
  1.59097500E+00  0.00000000E+00  0.00000000E+00  0.00000000E+00 -6.97981786E-01
  0.00000000E+00  0.00000000E+00  0.00000000E+00  0.00000000E+00  0.00000000E+00
  0.00000000E+00  0.00000000E+00  0.00000000E+00  0.00000000E+00  0.00000000E+00
 -2.69793852E-01  0.00000000E+00  0.00000000E+00  0.00000000E+00 -8.73872583E-01
  0.00000000E+00  0.00000000E+00  0.00000000E+00  1.59097500E+00  0.00000000E+00
  0.00000000E+00  0.00000000E+00 -6.97981786E-01  0.00000000E+00  0.00000000E+00
  0.00000000E+00  0.00000000E+00  0.00000000E+00  0.00000000E+00  1.27525741E-01
  2.52767566E-01  0.00000000E+00  0.00000000E+00  0.00000000E+00 -1.81082178E+00
  0.00000000E+00  0.00000000E+00  0.00000000E+00  2.43150765E+00  0.00000000E+00
  0.00000000E+00  0.00000000E+00 -1.03063538E+00  0.00000000E+00  0.00000000E+00
  0.00000000E+00 -1.20056386E-15  0.00000000E+00  0.00000000E+00 -3.29074574E-16
  0.00000000E+00  0.00000000E+00  0.00000000E+00  0.00000000E+00  0.00000000E+00
  0.00000000E+00  0.00000000E+00  0.00000000E+00  0.00000000E+00  0.00000000E+00
  0.00000000E+00  0.00000000E+00  0.00000000E+00  0.00000000E+00  0.00000000E+00
  0.00000000E+00  0.00000000E+00  0.00000000E+00  0.00000000E+00  0.00000000E+00
  0.00000000E+00  0.00000000E+00  1.00000000E+00  0.00000000E+00  0.00000000E+00
  0.00000000E+00  0.00000000E+00  0.00000000E+00  0.00000000E+00  0.00000000E+00
  0.00000000E+00  0.00000000E+00  0.00000000E+00  0.00000000E+00  0.00000000E+00
  0.00000000E+00  0.00000000E+00  0.00000000E+00  0.00000000E+00  0.00000000E+00
  0.00000000E+00  1.00000000E+00  0.00000000E+00  0.00000000E+00  0.00000000E+00
  0.00000000E+00  0.00000000E+00  0.00000000E+00  0.00000000E+00  0.00000000E+00
  0.00000000E+00  0.00000000E+00  0.00000000E+00  0.00000000E+00  0.00000000E+00
  0.00000000E+00  0.00000000E+00  0.00000000E+00  0.00000000E+00  0.00000000E+00
  0.00000000E+00  0.00000000E+00  0.00000000E+00  0.00000000E+00  1.00000000E+00
  0.00000000E+00  0.00000000E+00  2.57822942E-16  2.85381762E-16  0.00000000E+00
  0.00000000E+00  0.00000000E+00 -2.05413801E-15  0.00000000E+00  0.00000000E+00
  0.00000000E+00  2.30430666E-15  0.00000000E+00  0.00000000E+00  0.00000000E+00
 -1.08049714E-15  0.00000000E+00  0.00000000E+00  0.00000000E+00  9.94320647E-01
  0.00000000E+00  0.00000000E+00 -1.06425799E-01  0.00000000E+00  1.09338962E-16
  3.06566125E-16  0.00000000E+00  0.00000000E+00  0.00000000E+00 -2.54591727E-15
  0.00000000E+00  0.00000000E+00  0.00000000E+00  3.57407390E-15  0.00000000E+00
  0.00000000E+00  0.00000000E+00 -1.05782951E-15  0.00000000E+00  0.00000000E+00
  0.00000000E+00  1.06425799E-01  0.00000000E+00  0.00000000E+00  9.94320647E-01
  0.00000000E+00  0.00000000E+00  0.00000000E+00  0.00000000E+00  0.00000000E+00
 -1.27553638E+00  0.00000000E+00  0.00000000E+00  0.00000000E+00  1.50658425E+00
  0.00000000E+00  0.00000000E+00  0.00000000E+00 -8.28206810E-01  0.00000000E+00
  0.00000000E+00  0.00000000E+00  2.98016358E-01  0.00000000E+00  0.00000000E+00
  0.00000000E+00  0.00000000E+00  0.00000000E+00  0.00000000E+00  0.00000000E+00
  0.00000000E+00 -1.27553638E+00  0.00000000E+00  0.00000000E+00  0.00000000E+00
  1.50658425E+00  0.00000000E+00  0.00000000E+00  0.00000000E+00 -8.28206810E-01
  0.00000000E+00  0.00000000E+00  0.00000000E+00  2.98016358E-01  0.00000000E+00
  0.00000000E+00  0.00000000E+00  0.00000000E+00  0.00000000E+00  0.00000000E+00
  0.00000000E+00  0.00000000E+00 -1.27553638E+00  0.00000000E+00  0.00000000E+00
  0.00000000E+00  1.50658425E+00  0.00000000E+00  0.00000000E+00  0.00000000E+00
 -8.28206810E-01  0.00000000E+00  0.00000000E+00  0.00000000E+00  2.98016358E-01
  0.00000000E+00  0.00000000E+00  0.00000000E+00  0.00000000E+00  0.00000000E+00
  0.00000000E+00  0.00000000E+00 -2.24584247E+00  2.33033338E+00  0.00000000E+00
  0.00000000E+00  0.00000000E+00 -2.48894986E-01  0.00000000E+00  0.00000000E+00
  0.00000000E+00  2.28758167E-01  0.00000000E+00  0.00000000E+00  0.00000000E+00
 -9.11347004E-02  0.00000000E+00  0.00000000E+00  0.00000000E+00  2.65253918E-17
  0.00000000E+00  0.00000000E+00 -8.21015377E-18  0.00000000E+00
Orthonormal basis                          R   N=         484
  2.40254389E-01  2.48108308E-01  0.00000000E+00  0.00000000E+00  0.00000000E+00
  3.12714494E-01  0.00000000E+00  0.00000000E+00  0.00000000E+00  3.09388206E-01
  0.00000000E+00  0.00000000E+00  0.00000000E+00  2.48983539E-01  0.00000000E+00
  0.00000000E+00  0.00000000E+00  0.00000000E+00  0.00000000E+00  0.00000000E+00
  0.00000000E+00  0.00000000E+00  4.37612213E-01  4.31375527E-01  0.00000000E+00
  0.00000000E+00  0.00000000E+00 -8.77440131E-02  0.00000000E+00  0.00000000E+00
  0.00000000E+00 -3.15852006E-01  0.00000000E+00  0.00000000E+00  0.00000000E+00
 -3.49446382E-01  0.00000000E+00  0.00000000E+00  0.00000000E+00  0.00000000E+00
  0.00000000E+00  0.00000000E+00  0.00000000E+00  0.00000000E+00  0.00000000E+00
  0.00000000E+00  0.00000000E+00  0.00000000E+00  0.00000000E+00  0.00000000E+00
  0.00000000E+00  0.00000000E+00  0.00000000E+00  0.00000000E+00  0.00000000E+00
  0.00000000E+00  0.00000000E+00  0.00000000E+00  0.00000000E+00  0.00000000E+00
  0.00000000E+00  1.00000000E+00  0.00000000E+00  0.00000000E+00  0.00000000E+00
  0.00000000E+00  0.00000000E+00  0.00000000E+00  0.00000000E+00  0.00000000E+00
  0.00000000E+00  0.00000000E+00  0.00000000E+00  0.00000000E+00  0.00000000E+00
  0.00000000E+00  0.00000000E+00  0.00000000E+00  0.00000000E+00  0.00000000E+00
  0.00000000E+00  0.00000000E+00  0.00000000E+00  0.00000000E+00  0.00000000E+00
  0.00000000E+00  1.00000000E+00  0.00000000E+00 -2.92457799E-01 -1.77881569E-01
  0.00000000E+00  0.00000000E+00  0.00000000E+00  1.01803681E+00  0.00000000E+00
  0.00000000E+00  0.00000000E+00  6.58257692E-02  0.00000000E+00  0.00000000E+00
  0.00000000E+00 -9.00952799E-01  0.00000000E+00  0.00000000E+00  0.00000000E+00
  0.00000000E+00  0.00000000E+00  0.00000000E+00  0.00000000E+00  0.00000000E+00
  2.02231300E+00 -1.95618674E+00  0.00000000E+00  0.00000000E+00  0.00000000E+00
 -4.83547008E-01  0.00000000E+00  0.00000000E+00  0.00000000E+00  1.08069896E+00
  0.00000000E+00  0.00000000E+00  0.00000000E+00 -7.37666230E-01  0.00000000E+00
  0.00000000E+00  0.00000000E+00  0.00000000E+00  0.00000000E+00  0.00000000E+00
  0.00000000E+00  0.00000000E+00 -9.78495787E-01  1.28612528E+00  0.00000000E+00
  0.00000000E+00  0.00000000E+00 -1.52706199E+00  0.00000000E+00  0.00000000E+00
  0.00000000E+00  2.46440269E+00  0.00000000E+00  0.00000000E+00  0.00000000E+00
 -1.48175728E+00  0.00000000E+00  0.00000000E+00  0.00000000E+00  0.00000000E+00
  0.00000000E+00  0.00000000E+00  0.00000000E+00  0.00000000E+00  0.00000000E+00
  0.00000000E+00  0.00000000E+00  0.00000000E+00  0.00000000E+00  0.00000000E+00
  0.00000000E+00  0.00000000E+00  0.00000000E+00  0.00000000E+00  0.00000000E+00
  0.00000000E+00  0.00000000E+00  0.00000000E+00  0.00000000E+00  0.00000000E+00
  0.00000000E+00  0.00000000E+00  0.00000000E+00  0.00000000E+00  0.00000000E+00
  1.00000000E+00  0.00000000E+00  0.00000000E+00  0.00000000E+00  0.00000000E+00
  0.00000000E+00  0.00000000E+00  0.00000000E+00  0.00000000E+00  0.00000000E+00
  0.00000000E+00  0.00000000E+00  0.00000000E+00  0.00000000E+00  0.00000000E+00
  0.00000000E+00  0.00000000E+00  0.00000000E+00  0.00000000E+00  1.00000000E+00
  0.00000000E+00  0.00000000E+00  0.00000000E+00  0.00000000E+00  0.00000000E+00
  0.00000000E+00  0.00000000E+00  0.00000000E+00  0.00000000E+00  0.00000000E+00
  0.00000000E+00  0.00000000E+00  0.00000000E+00  0.00000000E+00  0.00000000E+00
  0.00000000E+00  0.00000000E+00  0.00000000E+00  0.00000000E+00  0.00000000E+00
  0.00000000E+00  0.00000000E+00  1.00000000E+00  0.00000000E+00  0.00000000E+00
  0.00000000E+00  0.00000000E+00  0.00000000E+00  0.00000000E+00  2.55873991E-01
  0.00000000E+00  0.00000000E+00  0.00000000E+00  3.72870611E-01  0.00000000E+00
  0.00000000E+00  0.00000000E+00  3.88870282E-01  0.00000000E+00  0.00000000E+00
  0.00000000E+00  2.95582357E-01  0.00000000E+00  0.00000000E+00  0.00000000E+00
  0.00000000E+00  0.00000000E+00  0.00000000E+00  0.00000000E+00  0.00000000E+00
  0.00000000E+00  6.03851608E-01  0.00000000E+00  0.00000000E+00  0.00000000E+00
  3.22837419E-01  0.00000000E+00  0.00000000E+00  0.00000000E+00 -2.97177247E-01
  0.00000000E+00  0.00000000E+00  0.00000000E+00 -5.39014264E-01  0.00000000E+00
  0.00000000E+00  0.00000000E+00  0.00000000E+00  0.00000000E+00  0.00000000E+00
  0.00000000E+00  0.00000000E+00  0.00000000E+00  8.97501777E-01  0.00000000E+00
  0.00000000E+00  0.00000000E+00 -7.49438596E-01  0.00000000E+00  0.00000000E+00
  0.00000000E+00 -5.07834213E-01  0.00000000E+00  0.00000000E+00  0.00000000E+00
  8.36578683E-01  0.00000000E+00  0.00000000E+00  0.00000000E+00  0.00000000E+00
  0.00000000E+00  0.00000000E+00  0.00000000E+00  0.00000000E+00  0.00000000E+00
  7.53044035E-01  0.00000000E+00  0.00000000E+00  0.00000000E+00 -1.55307648E+00
  0.00000000E+00  0.00000000E+00  0.00000000E+00  1.82377952E+00  0.00000000E+00
  0.00000000E+00  0.00000000E+00 -1.09208637E+00  0.00000000E+00  0.00000000E+00
  0.00000000E+00  0.00000000E+00  0.00000000E+00  0.00000000E+00  0.00000000E+00
  0.00000000E+00  2.55873991E-01  0.00000000E+00  0.00000000E+00  0.00000000E+00
  3.72870611E-01  0.00000000E+00  0.00000000E+00  0.00000000E+00  3.88870282E-01
  0.00000000E+00  0.00000000E+00  0.00000000E+00  2.95582357E-01  0.00000000E+00
  0.00000000E+00  0.00000000E+00  0.00000000E+00  0.00000000E+00  0.00000000E+00
  0.00000000E+00  0.00000000E+00  0.00000000E+00  6.03851608E-01  0.00000000E+00
  0.00000000E+00  0.00000000E+00  3.22837419E-01  0.00000000E+00  0.00000000E+00
  0.00000000E+00 -2.97177247E-01  0.00000000E+00  0.00000000E+00  0.00000000E+00
 -5.39014264E-01  0.00000000E+00  0.00000000E+00  0.00000000E+00  0.00000000E+00
  0.00000000E+00  0.00000000E+00  0.00000000E+00  0.00000000E+00  0.00000000E+00
  8.97501777E-01  0.00000000E+00  0.00000000E+00  0.00000000E+00 -7.49438596E-01
  0.00000000E+00  0.00000000E+00  0.00000000E+00 -5.07834213E-01  0.00000000E+00
  0.00000000E+00  0.00000000E+00  8.36578683E-01  0.00000000E+00  0.00000000E+00
  0.00000000E+00  0.00000000E+00  0.00000000E+00  0.00000000E+00  0.00000000E+00
  0.00000000E+00  0.00000000E+00  7.53044035E-01  0.00000000E+00  0.00000000E+00
  0.00000000E+00 -1.55307648E+00  0.00000000E+00  0.00000000E+00  0.00000000E+00
  1.82377952E+00  0.00000000E+00  0.00000000E+00  0.00000000E+00 -1.09208637E+00
  0.00000000E+00  0.00000000E+00  0.00000000E+00  0.00000000E+00  0.00000000E+00
  0.00000000E+00  0.00000000E+00  0.00000000E+00  2.55873991E-01  0.00000000E+00
  0.00000000E+00  0.00000000E+00  3.72870611E-01  0.00000000E+00  0.00000000E+00
  0.00000000E+00  3.88870282E-01  0.00000000E+00  0.00000000E+00  0.00000000E+00
  2.95582357E-01  0.00000000E+00  0.00000000E+00  0.00000000E+00  0.00000000E+00
  0.00000000E+00  0.00000000E+00  0.00000000E+00  0.00000000E+00  0.00000000E+00
  6.03851608E-01  0.00000000E+00  0.00000000E+00  0.00000000E+00  3.22837419E-01
  0.00000000E+00  0.00000000E+00  0.00000000E+00 -2.97177247E-01  0.00000000E+00
  0.00000000E+00  0.00000000E+00 -5.39014264E-01  0.00000000E+00  0.00000000E+00
  0.00000000E+00  0.00000000E+00  0.00000000E+00  0.00000000E+00  0.00000000E+00
  0.00000000E+00  0.00000000E+00  8.97501777E-01  0.00000000E+00  0.00000000E+00
  0.00000000E+00 -7.49438596E-01  0.00000000E+00  0.00000000E+00  0.00000000E+00
 -5.07834213E-01  0.00000000E+00  0.00000000E+00  0.00000000E+00  8.36578683E-01
  0.00000000E+00  0.00000000E+00  0.00000000E+00  0.00000000E+00  0.00000000E+00
  0.00000000E+00  0.00000000E+00  0.00000000E+00  0.00000000E+00  7.53044035E-01
  0.00000000E+00  0.00000000E+00  0.00000000E+00 -1.55307648E+00  0.00000000E+00
  0.00000000E+00  0.00000000E+00  1.82377952E+00  0.00000000E+00  0.00000000E+00
  0.00000000E+00 -1.09208637E+00  0.00000000E+00  0.00000000E+00  0.00000000E+00
  0.00000000E+00  0.00000000E+00  0.00000000E+00  0.00000000E+00
Total SCF Density                          R   N=         253
  6.40810228E-01  5.70019819E-01  5.24726794E-01  0.00000000E+00  0.00000000E+00
  1.33207257E-01  0.00000000E+00  0.00000000E+00 -1.23901493E-32  1.33207257E-01
  0.00000000E+00  0.00000000E+00 -1.12632689E-19  1.12632689E-19  1.33207257E-01
 -1.39782468E-01 -2.34941659E-01  0.00000000E+00  0.00000000E+00  0.00000000E+00
  7.22490457E-01  0.00000000E+00  0.00000000E+00  2.02188904E-01 -1.88741135E-32
 -1.70959755E-19  0.00000000E+00  3.06892836E-01  0.00000000E+00  0.00000000E+00
 -1.86173228E-32  2.02188904E-01  1.70959755E-19  0.00000000E+00 -2.70914146E-32
  3.06892836E-01  0.00000000E+00  0.00000000E+00 -1.70959755E-19  1.70959755E-19
  2.02188904E-01  0.00000000E+00 -2.59491610E-19  2.59491610E-19  3.06892836E-01
 -1.24410308E-01 -1.96998531E-01  0.00000000E+00  0.00000000E+00  0.00000000E+00
  5.67292146E-01  0.00000000E+00  0.00000000E+00  0.00000000E+00  4.45781911E-01
  0.00000000E+00  0.00000000E+00  1.43835897E-01 -2.51654846E-32 -1.21619680E-19
  0.00000000E+00  2.18321607E-01 -3.86469942E-32 -1.84600677E-19  0.00000000E+00
  1.55312599E-01  0.00000000E+00  0.00000000E+00 -2.51654846E-32  1.43835897E-01
  1.21619680E-19  0.00000000E+00 -3.86469942E-32  2.18321607E-01  1.84600677E-19
  0.00000000E+00 -4.08939125E-32  1.55312599E-01  0.00000000E+00  0.00000000E+00
 -1.21619680E-19  1.21619680E-19  1.43835897E-01  0.00000000E+00 -1.84600677E-19
  1.84600677E-19  2.18321607E-01  0.00000000E+00 -1.31323744E-19  1.31323744E-19
  1.55312599E-01 -1.52440486E-02 -2.61752586E-02  0.00000000E+00  0.00000000E+00
  0.00000000E+00  8.22551340E-02  0.00000000E+00  0.00000000E+00  0.00000000E+00
  6.45698934E-02  0.00000000E+00  0.00000000E+00  0.00000000E+00  9.36543257E-03
  0.00000000E+00  0.00000000E+00  2.11632487E-01  7.70371978E-34 -1.78944727E-19
  0.00000000E+00  3.21226798E-01  1.02716264E-33 -2.71611615E-19  0.00000000E+00
  2.28518696E-01 -1.81037415E-32 -1.93222771E-19  0.00000000E+00  3.36230252E-01
  0.00000000E+00  0.00000000E+00 -2.56790659E-34  2.11632487E-01  1.78944727E-19
  0.00000000E+00  1.02716264E-33  3.21226798E-01  2.71611615E-19  0.00000000E+00
 -1.81037415E-32  2.28518696E-01  1.93222771E-19  0.00000000E+00  3.35111810E-32
  3.36230252E-01  0.00000000E+00  0.00000000E+00 -1.78944727E-19  1.78944727E-19
  2.11632487E-01  0.00000000E+00 -2.71611615E-19  2.71611615E-19  3.21226798E-01
  0.00000000E+00 -1.93222771E-19  1.93222771E-19  2.28518696E-01  0.00000000E+00
 -2.84297707E-19  2.84297707E-19  3.36230252E-01  5.59803637E-32  2.04576559E-32
  0.00000000E+00  0.00000000E+00  0.00000000E+00 -7.70371978E-33  0.00000000E+00
  0.00000000E+00  0.00000000E+00 -5.22141007E-33  0.00000000E+00  0.00000000E+00
  0.00000000E+00  1.24115485E-33  0.00000000E+00  0.00000000E+00  0.00000000E+00
  4.13889801E-31 -2.29271231E-33 -2.37559329E-33  0.00000000E+00  0.00000000E+00
  0.00000000E+00  2.60335967E-33  0.00000000E+00  0.00000000E+00  0.00000000E+00
  2.08684718E-33  0.00000000E+00  0.00000000E+00  0.00000000E+00  2.94437783E-34
  0.00000000E+00  0.00000000E+00  0.00000000E+00  6.89820576E-48  2.03254736E-62
  5.95105613E-33  5.72713769E-33  0.00000000E+00  0.00000000E+00  0.00000000E+00
 -4.01038769E-33  0.00000000E+00  0.00000000E+00  0.00000000E+00 -3.27247972E-33
  0.00000000E+00  0.00000000E+00  0.00000000E+00 -4.50930182E-34  0.00000000E+00
  0.00000000E+00  0.00000000E+00 -8.35911820E-48  2.16029035E-63  3.13218382E-62
  1.45292993E-32 -3.54336993E-32  0.00000000E+00  0.00000000E+00  0.00000000E+00
 -6.81987519E-33  0.00000000E+00  0.00000000E+00  0.00000000E+00 -4.00297022E-33
  0.00000000E+00  0.00000000E+00  0.00000000E+00 -1.26019433E-33  0.00000000E+00
  0.00000000E+00  0.00000000E+00  4.37905770E-47 -6.78155737E-48 -4.96737073E-48
  4.13889801E-31 -1.20871940E-32 -1.22220990E-32  0.00000000E+00  0.00000000E+00
  0.00000000E+00  1.18351245E-32  0.00000000E+00  0.00000000E+00  0.00000000E+00
  9.52674639E-33  0.00000000E+00  0.00000000E+00  0.00000000E+00  1.33672552E-33
  0.00000000E+00  0.00000000E+00  0.00000000E+00  7.33201828E-48  3.40562848E-64
 -1.29099892E-64  3.81483102E-47  2.68620727E-62
Mulliken Charges                           R   N=           1
 -2.00000000E+00
ONIOM Charges                              I   N=          16
          -2           0           0           0           0           0
           0           0           0           0           0           0
           0           0           0           0
ONIOM Multiplicities                       I   N=          16
           1           0           0           0           0           0
           0           0           0           0           0           0
           0           0           0           0