fubar                                                                   
SP        UPBE1PBE                                                    6-311+G(d,p)        
Number of atoms                            I                1
Info1-9                                    I   N=           9
          11          10           0           0           0         110
           1          18       -1302
Full Title                                 C   N=           1
fubar       
Route                                      C   N=           3
#PBE1PBE/6-311+G(d,p) scf=tight     
Charge                                     I               -2
Multiplicity                               I                2
Number of electrons                        I                9
Number of alpha electrons                  I                5
Number of beta electrons                   I                4
Number of basis functions                  I               22
Number of independent functions            I               22
Number of point charges in /Mol/           I                0
Number of translation vectors              I                0
Atomic numbers                             I   N=           1
           7
Nuclear charges                            R   N=           1
  7.00000000E+00
Current cartesian coordinates              R   N=           3
  0.00000000E+00  0.00000000E+00  0.00000000E+00
Number of symbols in /Mol/                 I                0
Int Atom Types                             I   N=           1
           0
Force Field                                I                0
Atom Types                                 C   N=           1
            
MM charges                                 R   N=           1
  0.00000000E+00
Integer atomic weights                     I   N=           1
          14
Real atomic weights                        R   N=           1
  1.40030740E+01
Atom fragment info                         I   N=           1
           0
Atom residue num                           I   N=           1
           0
Nuclear spins                              I   N=           1
           2
Nuclear ZEff                               R   N=           1
 -4.55000000E+00
Nuclear ZNuc                               R   N=           1
  7.00000000E+00
Nuclear QMom                               R   N=           1
  2.04400000E+00
Nuclear GFac                               R   N=           1
  4.03761000E-01
MicOpt                                     I   N=           1
          -1
Number of residues                         I                0
Number of secondary structures             I                0
SymInf integers                            I   N=          26
           1           8           1           1           1           1
          -1          -1          -1           1          -1          -1
          -1           1          -1          -1          -1          -1
           1           1           1          -1           1           1
           1          -1
RotTr to input orientation                 R   N=          12
  0.00000000E+00  0.00000000E+00 -1.00000000E+00  0.00000000E+00  1.00000000E+00
  0.00000000E+00  1.00000000E+00  0.00000000E+00  0.00000000E+00  0.00000000E+00
  0.00000000E+00  0.00000000E+00
Number of contracted shells                I                6
Number of primitive shells                 I               13
Pure/Cartesian d shells                    I                0
Pure/Cartesian f shells                    I                0
Highest angular momentum                   I                2
Largest degree of contraction              I                6
Shell types                                I   N=           6
           0          -1          -1          -1          -1          -2
Number of primitives per shell             I   N=           6
           6           3           1           1           1           1
Shell to atom map                          I   N=           6
           1           1           1           1           1           1
Primitive exponents                        R   N=          13
  6.29348000E+03  9.49044000E+02  2.18776000E+02  6.36916000E+01  1.88282000E+01
  2.72023000E+00  3.06331000E+01  7.02614000E+00  2.11205000E+00  6.84009000E-01
  2.00878000E-01  6.39000000E-02  9.13000000E-01
Contraction coefficients                   R   N=          13
  1.96978815E-03  1.49612859E-02  7.35005308E-02  2.48936766E-01  6.02459433E-01
  2.56201759E-01  1.11906080E-01  9.21666655E-01 -2.56919183E-03  1.00000000E+00
  1.00000000E+00  1.00000000E+00  1.00000000E+00
P(S=P) Contraction coefficients            R   N=          13
  0.00000000E+00  0.00000000E+00  0.00000000E+00  0.00000000E+00  0.00000000E+00
  0.00000000E+00  3.83119186E-02  2.37403116E-01  8.17592398E-01  1.00000000E+00
  1.00000000E+00  1.00000000E+00  0.00000000E+00
Coordinates of each shell                  R   N=          18
  0.00000000E+00  0.00000000E+00  0.00000000E+00  0.00000000E+00  0.00000000E+00
  0.00000000E+00  0.00000000E+00  0.00000000E+00  0.00000000E+00  0.00000000E+00
  0.00000000E+00  0.00000000E+00  0.00000000E+00  0.00000000E+00  0.00000000E+00
  0.00000000E+00  0.00000000E+00  0.00000000E+00
Num ILSW                                   I              100
ILSW                                       I   N=         100
           1           0           0           0           2           0
           0           0           0           0        1009          -1
           5           0           0           0           0           0
           0           0           0           0           0           0
           1           0           0           0           0           0
           0           0      100000           0          -1           0
           0           0           0           0           0           0
           0           0           0           1           0           0
           0 -2000000000           1           0           0           0
           0           1           4          52           0           0
           0           0          13           0           0           0
           0           0           0           1           0           1
           0           0           0           0           0           0
           0           0           0           0           0           0
           0           0           0           0           0           0
           0           0           0           0           0           0
           0           0           0           0
Num RLSW                                   I               52
RLSW                                       R   N=          52
  7.50000000E-01  7.50000000E-01  1.00000000E+00  1.00000000E+00  2.50000000E-01
  0.00000000E+00  0.00000000E+00  1.00000000E+00  0.00000000E+00  0.00000000E+00
  0.00000000E+00  0.00000000E+00  1.00000000E+00  0.00000000E+00  0.00000000E+00
  0.00000000E+00  0.00000000E+00  1.00000000E+00  0.00000000E+00  0.00000000E+00
  0.00000000E+00  0.00000000E+00  1.00000000E+00  0.00000000E+00  0.00000000E+00
  0.00000000E+00  0.00000000E+00  1.00000000E+00  0.00000000E+00  0.00000000E+00
  0.00000000E+00  0.00000000E+00  1.00000000E+00  0.00000000E+00  0.00000000E+00
  0.00000000E+00  0.00000000E+00  0.00000000E+00  1.00000000E+00  1.00000000E+00
  0.00000000E+00  1.00000000E+00  0.00000000E+00  0.00000000E+00  0.00000000E+00
  0.00000000E+00  0.00000000E+00  0.00000000E+00  0.00000000E+00  0.00000000E+00
  0.00000000E+00  0.00000000E+00
MxBond                                     I                1
NBond                                      I   N=           1
           0
IBond                                      I   N=           1
           0
RBond                                      R   N=           1
  0.00000000E+00
Virial Ratio                               R      1.999122826906342E+00
SCF Energy                                 R     -5.427006959859046E+01
Total Energy                               R     -5.427006959859046E+01
S**2                                       R      8.340044685013623E-01
S**2 after annihilation                    R      7.542218809481646E-01
RMS Density                                R      3.936565075035170E-09
Job Status                                 I                1
Nuclear derivative order                   I                0
External E-field                           R   N=          35
  0.00000000E+00  0.00000000E+00  0.00000000E+00  0.00000000E+00  0.00000000E+00
  0.00000000E+00  0.00000000E+00  0.00000000E+00  0.00000000E+00  0.00000000E+00
  0.00000000E+00  0.00000000E+00  0.00000000E+00  0.00000000E+00  0.00000000E+00
  0.00000000E+00  0.00000000E+00  0.00000000E+00  0.00000000E+00  0.00000000E+00
  0.00000000E+00  0.00000000E+00  0.00000000E+00  0.00000000E+00  0.00000000E+00
  0.00000000E+00  0.00000000E+00  0.00000000E+00  0.00000000E+00  0.00000000E+00
  0.00000000E+00  0.00000000E+00  0.00000000E+00  0.00000000E+00  0.00000000E+00
IOpCl                                      I                1
IROHF                                      I                0
Alpha Orbital Energies                     R   N=          22
 -1.38763559E+01 -1.79804483E-01  2.37050658E-01  2.80478682E-01  2.80478682E-01
  4.69068187E-01  4.89463426E-01  5.05875665E-01  5.05875665E-01  1.26604968E+00
  1.29895215E+00  1.29895215E+00  1.46311031E+00  2.50285404E+00  2.51390340E+00
  2.51390340E+00  2.54863760E+00  2.54863760E+00  4.30909657E+00  4.34741425E+00
  4.34741425E+00  3.58246173E+01
Beta Orbital Energies                      R   N=          22
 -1.38506077E+01 -8.99674723E-02  3.17383396E-01  3.17383396E-01  4.06915893E-01
  4.69955945E-01  5.20410895E-01  5.20410895E-01  5.57835119E-01  1.32442919E+00
  1.32442919E+00  1.34599492E+00  1.50619778E+00  2.58557978E+00  2.58557978E+00
  2.59826401E+00  2.59826401E+00  2.61134450E+00  4.38324558E+00  4.38324558E+00
  4.40208944E+00  3.58483851E+01
Alpha MO coefficients                      R   N=         484
  5.57411283E-01  4.66453357E-01  0.00000000E+00  0.00000000E+00  0.00000000E+00
  1.20812509E-02  0.00000000E+00  0.00000000E+00  0.00000000E+00 -5.63822536E-03
  0.00000000E+00  0.00000000E+00  0.00000000E+00  2.07679925E-03  0.00000000E+00
  0.00000000E+00  0.00000000E+00 -1.10850781E-04  0.00000000E+00  0.00000000E+00
  1.91999185E-04  0.00000000E+00 -1.27452146E-01 -2.04538953E-01  0.00000000E+00
  0.00000000E+00  0.00000000E+00  5.91576860E-01  0.00000000E+00  0.00000000E+00
  0.00000000E+00  4.80691911E-01  0.00000000E+00  0.00000000E+00  0.00000000E+00
  6.61875667E-02  0.00000000E+00  0.00000000E+00  0.00000000E+00 -6.75301969E-03
  0.00000000E+00  0.00000000E+00  1.16965732E-02  0.00000000E+00  0.00000000E+00
  0.00000000E+00  2.67084677E-01  0.00000000E+00  0.00000000E+00  0.00000000E+00
  4.11651165E-01  0.00000000E+00  0.00000000E+00  0.00000000E+00  3.32673012E-01
  0.00000000E+00  0.00000000E+00  0.00000000E+00  3.05255156E-01  0.00000000E+00
  0.00000000E+00  0.00000000E+00  0.00000000E+00  0.00000000E+00  0.00000000E+00
  0.00000000E+00  0.00000000E+00  0.00000000E+00  0.00000000E+00  0.00000000E+00
  2.49525176E-01  0.00000000E+00  0.00000000E+00  0.00000000E+00  3.88328511E-01
  0.00000000E+00  0.00000000E+00  0.00000000E+00  2.85329577E-01  0.00000000E+00
  0.00000000E+00  0.00000000E+00  4.10169670E-01  0.00000000E+00  0.00000000E+00
  0.00000000E+00  0.00000000E+00  0.00000000E+00  0.00000000E+00  0.00000000E+00
  0.00000000E+00  2.49525176E-01  0.00000000E+00  0.00000000E+00  0.00000000E+00
  3.88328511E-01  0.00000000E+00  0.00000000E+00  0.00000000E+00  2.85329577E-01
  0.00000000E+00  0.00000000E+00  0.00000000E+00  4.10169670E-01  0.00000000E+00
  0.00000000E+00  0.00000000E+00  0.00000000E+00  0.00000000E+00  0.00000000E+00
  3.87921241E-02  5.71721812E-02  0.00000000E+00  0.00000000E+00  0.00000000E+00
 -6.31700862E-02  0.00000000E+00  0.00000000E+00  0.00000000E+00 -1.09144681E+00
  0.00000000E+00  0.00000000E+00  0.00000000E+00  1.59808534E+00  0.00000000E+00
  0.00000000E+00  0.00000000E+00  1.90421506E-03  0.00000000E+00  0.00000000E+00
 -3.29819724E-03  0.00000000E+00  0.00000000E+00  0.00000000E+00 -1.64859859E-01
  0.00000000E+00  0.00000000E+00  0.00000000E+00 -1.40130364E-01  0.00000000E+00
  0.00000000E+00  0.00000000E+00 -6.69594640E-01  0.00000000E+00  0.00000000E+00
  0.00000000E+00  1.24112410E+00  0.00000000E+00  0.00000000E+00  0.00000000E+00
  0.00000000E+00  0.00000000E+00  0.00000000E+00  0.00000000E+00  0.00000000E+00
  0.00000000E+00  0.00000000E+00  0.00000000E+00 -1.85629090E-01  0.00000000E+00
  0.00000000E+00  0.00000000E+00 -1.63398004E-01  0.00000000E+00  0.00000000E+00
  0.00000000E+00 -7.19178406E-01  0.00000000E+00  0.00000000E+00  0.00000000E+00
  1.21774108E+00  0.00000000E+00  0.00000000E+00  0.00000000E+00  0.00000000E+00
  0.00000000E+00  0.00000000E+00  0.00000000E+00  0.00000000E+00 -1.85629090E-01
  0.00000000E+00  0.00000000E+00  0.00000000E+00 -1.63398004E-01  0.00000000E+00
  0.00000000E+00  0.00000000E+00 -7.19178406E-01  0.00000000E+00  0.00000000E+00
  0.00000000E+00  1.21774108E+00  0.00000000E+00  0.00000000E+00  0.00000000E+00
  0.00000000E+00  0.00000000E+00  0.00000000E+00  0.00000000E+00  0.00000000E+00
 -2.61751976E-01  0.00000000E+00  0.00000000E+00  0.00000000E+00 -9.04236288E-01
  0.00000000E+00  0.00000000E+00  0.00000000E+00  1.59770554E+00  0.00000000E+00
  0.00000000E+00  0.00000000E+00 -6.76679641E-01  0.00000000E+00  0.00000000E+00
  0.00000000E+00  0.00000000E+00  0.00000000E+00  0.00000000E+00  0.00000000E+00
  0.00000000E+00  0.00000000E+00  0.00000000E+00 -2.64480157E-01  0.00000000E+00
  0.00000000E+00  0.00000000E+00 -9.12448271E-01  0.00000000E+00  0.00000000E+00
  0.00000000E+00  1.58693904E+00  0.00000000E+00  0.00000000E+00  0.00000000E+00
 -6.64279486E-01  0.00000000E+00  0.00000000E+00  0.00000000E+00  0.00000000E+00
  0.00000000E+00  0.00000000E+00  0.00000000E+00  0.00000000E+00  0.00000000E+00
  0.00000000E+00 -2.64480157E-01  0.00000000E+00  0.00000000E+00  0.00000000E+00
 -9.12448271E-01  0.00000000E+00  0.00000000E+00  0.00000000E+00  1.58693904E+00
  0.00000000E+00  0.00000000E+00  0.00000000E+00 -6.64279486E-01  0.00000000E+00
  0.00000000E+00  0.00000000E+00  0.00000000E+00  0.00000000E+00  1.29008922E-01
  2.58845739E-01  0.00000000E+00  0.00000000E+00  0.00000000E+00 -1.86564043E+00
  0.00000000E+00  0.00000000E+00  0.00000000E+00  2.43882046E+00  0.00000000E+00
  0.00000000E+00  0.00000000E+00 -9.92563108E-01  0.00000000E+00  0.00000000E+00
  0.00000000E+00  1.89559548E-03  0.00000000E+00  0.00000000E+00 -3.28326769E-03
  0.00000000E+00  2.56037413E-03  3.51645054E-03  0.00000000E+00  0.00000000E+00
  0.00000000E+00 -1.52584236E-02  0.00000000E+00  0.00000000E+00  0.00000000E+00
 -1.44382273E-03  0.00000000E+00  0.00000000E+00  0.00000000E+00  1.44478934E-03
  0.00000000E+00  0.00000000E+00  0.00000000E+00 -4.99947157E-01  0.00000000E+00
  0.00000000E+00  8.65933876E-01  0.00000000E+00  0.00000000E+00  0.00000000E+00
  0.00000000E+00  0.00000000E+00  0.00000000E+00  0.00000000E+00  0.00000000E+00
  0.00000000E+00  0.00000000E+00  0.00000000E+00  0.00000000E+00  0.00000000E+00
  0.00000000E+00  0.00000000E+00  0.00000000E+00  0.00000000E+00  0.00000000E+00
  0.00000000E+00  0.00000000E+00  0.00000000E+00  0.00000000E+00  1.00000000E+00
  0.00000000E+00  0.00000000E+00  0.00000000E+00  0.00000000E+00  0.00000000E+00
  0.00000000E+00  0.00000000E+00  0.00000000E+00  0.00000000E+00  0.00000000E+00
  0.00000000E+00  0.00000000E+00  0.00000000E+00  0.00000000E+00  0.00000000E+00
  0.00000000E+00  0.00000000E+00  0.00000000E+00  1.00000000E+00  0.00000000E+00
  0.00000000E+00  0.00000000E+00  0.00000000E+00  0.00000000E+00  0.00000000E+00
  0.00000000E+00  0.00000000E+00  0.00000000E+00  0.00000000E+00  0.00000000E+00
  0.00000000E+00  0.00000000E+00  0.00000000E+00  0.00000000E+00  0.00000000E+00
  0.00000000E+00  0.00000000E+00  0.00000000E+00  0.00000000E+00  0.00000000E+00
  0.00000000E+00  1.00000000E+00  0.00000000E+00  0.00000000E+00 -3.67743303E-16
 -7.25948640E-16  0.00000000E+00  0.00000000E+00  0.00000000E+00  4.75494625E-15
  0.00000000E+00  0.00000000E+00  0.00000000E+00 -4.79472179E-15  0.00000000E+00
  0.00000000E+00  0.00000000E+00  1.73710476E-15  0.00000000E+00  0.00000000E+00
  0.00000000E+00  8.66025404E-01  0.00000000E+00  0.00000000E+00  5.00000000E-01
  0.00000000E+00  0.00000000E+00  0.00000000E+00 -1.29715057E+00  0.00000000E+00
  0.00000000E+00  0.00000000E+00  1.54876281E+00  0.00000000E+00  0.00000000E+00
  0.00000000E+00 -8.50321588E-01  0.00000000E+00  0.00000000E+00  0.00000000E+00
  2.90695273E-01  0.00000000E+00  0.00000000E+00  0.00000000E+00  0.00000000E+00
  0.00000000E+00  0.00000000E+00  0.00000000E+00  0.00000000E+00  0.00000000E+00
  0.00000000E+00 -1.29728793E+00  0.00000000E+00  0.00000000E+00  0.00000000E+00
  1.54768954E+00  0.00000000E+00  0.00000000E+00  0.00000000E+00 -8.47190673E-01
  0.00000000E+00  0.00000000E+00  0.00000000E+00  2.89083171E-01  0.00000000E+00
  0.00000000E+00  0.00000000E+00  0.00000000E+00  0.00000000E+00  0.00000000E+00
  0.00000000E+00  0.00000000E+00  0.00000000E+00  0.00000000E+00 -1.29728793E+00
  0.00000000E+00  0.00000000E+00  0.00000000E+00  1.54768954E+00  0.00000000E+00
  0.00000000E+00  0.00000000E+00 -8.47190673E-01  0.00000000E+00  0.00000000E+00
  0.00000000E+00  2.89083171E-01  0.00000000E+00  0.00000000E+00  0.00000000E+00
  0.00000000E+00  0.00000000E+00 -2.14441328E+00  2.25387909E+00  0.00000000E+00
  0.00000000E+00  0.00000000E+00 -3.24855657E-01  0.00000000E+00  0.00000000E+00
  0.00000000E+00  2.76795852E-01  0.00000000E+00  0.00000000E+00  0.00000000E+00
 -1.04290038E-01  0.00000000E+00  0.00000000E+00  0.00000000E+00 -7.58888757E-05
  0.00000000E+00  0.00000000E+00  1.31443388E-04  0.00000000E+00
Beta MO coefficients                       R   N=         484
  5.58296848E-01  4.66246550E-01  0.00000000E+00  0.00000000E+00  0.00000000E+00
  1.00420549E-02  0.00000000E+00  0.00000000E+00  0.00000000E+00 -4.73068581E-03
  0.00000000E+00  0.00000000E+00  0.00000000E+00  1.72617946E-03  0.00000000E+00
  0.00000000E+00  0.00000000E+00  1.33726424E-04  0.00000000E+00  0.00000000E+00
 -2.31620961E-04  0.00000000E+00 -1.24005946E-01 -1.97575426E-01  0.00000000E+00
  0.00000000E+00  0.00000000E+00  5.61888483E-01  0.00000000E+00  0.00000000E+00
  0.00000000E+00  4.77419401E-01  0.00000000E+00  0.00000000E+00  0.00000000E+00
  1.07857444E-01  0.00000000E+00  0.00000000E+00  0.00000000E+00  4.25488348E-03
  0.00000000E+00  0.00000000E+00 -7.36967437E-03  0.00000000E+00  0.00000000E+00
  0.00000000E+00  0.00000000E+00  0.00000000E+00  2.01192890E-01  0.00000000E+00
  0.00000000E+00  0.00000000E+00  3.29464660E-01  0.00000000E+00  0.00000000E+00
  0.00000000E+00  1.66122959E-01  0.00000000E+00  0.00000000E+00  0.00000000E+00
  6.33851519E-01  0.00000000E+00  0.00000000E+00  0.00000000E+00  0.00000000E+00
  0.00000000E+00  0.00000000E+00  0.00000000E+00  0.00000000E+00  2.01192890E-01
  0.00000000E+00  0.00000000E+00  0.00000000E+00  3.29464660E-01  0.00000000E+00
  0.00000000E+00  0.00000000E+00  1.66122959E-01  0.00000000E+00  0.00000000E+00
  0.00000000E+00  6.33851519E-01  0.00000000E+00  0.00000000E+00  0.00000000E+00
  0.00000000E+00  0.00000000E+00  0.00000000E+00  0.00000000E+00  0.00000000E+00
  1.42619540E-01  0.00000000E+00  0.00000000E+00  0.00000000E+00  2.65361230E-01
  0.00000000E+00  0.00000000E+00  0.00000000E+00  9.88901316E-03  0.00000000E+00
  0.00000000E+00  0.00000000E+00  8.52632513E-01  0.00000000E+00  0.00000000E+00
  0.00000000E+00  0.00000000E+00  0.00000000E+00  0.00000000E+00  0.00000000E+00
  4.12144018E-02  5.98803353E-02  0.00000000E+00  0.00000000E+00  0.00000000E+00
 -5.45884671E-02  0.00000000E+00  0.00000000E+00  0.00000000E+00 -1.14560266E+00
  0.00000000E+00  0.00000000E+00  0.00000000E+00  1.61014509E+00  0.00000000E+00
  0.00000000E+00  0.00000000E+00 -5.95906173E-04  0.00000000E+00  0.00000000E+00
  1.03213977E-03  0.00000000E+00  0.00000000E+00  0.00000000E+00  0.00000000E+00
 -2.24372414E-01  0.00000000E+00  0.00000000E+00  0.00000000E+00 -2.15804688E-01
  0.00000000E+00  0.00000000E+00  0.00000000E+00 -8.01539577E-01  0.00000000E+00
  0.00000000E+00  0.00000000E+00  1.12675979E+00  0.00000000E+00  0.00000000E+00
  0.00000000E+00  0.00000000E+00  0.00000000E+00  0.00000000E+00  0.00000000E+00
  0.00000000E+00  0.00000000E+00  0.00000000E+00 -2.24372414E-01  0.00000000E+00
  0.00000000E+00  0.00000000E+00 -2.15804688E-01  0.00000000E+00  0.00000000E+00
  0.00000000E+00 -8.01539577E-01  0.00000000E+00  0.00000000E+00  0.00000000E+00
  1.12675979E+00  0.00000000E+00  0.00000000E+00  0.00000000E+00  0.00000000E+00
  0.00000000E+00  0.00000000E+00  0.00000000E+00 -2.52172513E-01  0.00000000E+00
  0.00000000E+00  0.00000000E+00 -2.60694349E-01  0.00000000E+00  0.00000000E+00
  0.00000000E+00 -8.57036682E-01  0.00000000E+00  0.00000000E+00  0.00000000E+00
  9.80594470E-01  0.00000000E+00  0.00000000E+00  0.00000000E+00  0.00000000E+00
  0.00000000E+00  0.00000000E+00  0.00000000E+00  0.00000000E+00  0.00000000E+00
  0.00000000E+00 -2.68631966E-01  0.00000000E+00  0.00000000E+00  0.00000000E+00
 -9.31934067E-01  0.00000000E+00  0.00000000E+00  0.00000000E+00  1.56773287E+00
  0.00000000E+00  0.00000000E+00  0.00000000E+00 -6.49935028E-01  0.00000000E+00
  0.00000000E+00  0.00000000E+00  0.00000000E+00  0.00000000E+00  0.00000000E+00
  0.00000000E+00  0.00000000E+00  0.00000000E+00  0.00000000E+00 -2.68631966E-01
  0.00000000E+00  0.00000000E+00  0.00000000E+00 -9.31934067E-01  0.00000000E+00
  0.00000000E+00  0.00000000E+00  1.56773287E+00  0.00000000E+00  0.00000000E+00
  0.00000000E+00 -6.49935028E-01  0.00000000E+00  0.00000000E+00  0.00000000E+00
  0.00000000E+00  0.00000000E+00  0.00000000E+00  0.00000000E+00 -2.72318512E-01
  0.00000000E+00  0.00000000E+00  0.00000000E+00 -9.48499690E-01  0.00000000E+00
  0.00000000E+00  0.00000000E+00  1.54914723E+00  0.00000000E+00  0.00000000E+00
  0.00000000E+00 -6.37256979E-01  0.00000000E+00  0.00000000E+00  0.00000000E+00
  0.00000000E+00  0.00000000E+00  0.00000000E+00  0.00000000E+00  1.31279998E-01
  2.62108293E-01  0.00000000E+00  0.00000000E+00  0.00000000E+00 -1.87502061E+00
  0.00000000E+00  0.00000000E+00  0.00000000E+00  2.41448908E+00  0.00000000E+00
  0.00000000E+00  0.00000000E+00 -9.69136972E-01  0.00000000E+00  0.00000000E+00
  0.00000000E+00 -2.69555027E-03  0.00000000E+00  0.00000000E+00  4.66883003E-03
  0.00000000E+00  0.00000000E+00  0.00000000E+00  0.00000000E+00  0.00000000E+00
  0.00000000E+00  0.00000000E+00  0.00000000E+00  0.00000000E+00  0.00000000E+00
  0.00000000E+00  0.00000000E+00  0.00000000E+00  0.00000000E+00  0.00000000E+00
  0.00000000E+00  0.00000000E+00  0.00000000E+00  0.00000000E+00  0.00000000E+00
  1.00000000E+00  0.00000000E+00  0.00000000E+00 -4.12192583E-16 -6.76347829E-16
  0.00000000E+00  0.00000000E+00  0.00000000E+00  4.42345609E-15  0.00000000E+00
  0.00000000E+00  0.00000000E+00 -5.43088752E-15  0.00000000E+00  0.00000000E+00
  0.00000000E+00  2.44629706E-15  0.00000000E+00  0.00000000E+00  0.00000000E+00
  8.66025404E-01  0.00000000E+00  0.00000000E+00  5.00000000E-01  0.00000000E+00
  0.00000000E+00  0.00000000E+00  0.00000000E+00  0.00000000E+00  0.00000000E+00
  0.00000000E+00  0.00000000E+00  0.00000000E+00  0.00000000E+00  0.00000000E+00
  0.00000000E+00  0.00000000E+00  0.00000000E+00  0.00000000E+00  0.00000000E+00
  0.00000000E+00  0.00000000E+00  0.00000000E+00  0.00000000E+00  0.00000000E+00
  0.00000000E+00  1.00000000E+00  0.00000000E+00  0.00000000E+00  0.00000000E+00
  0.00000000E+00  0.00000000E+00  0.00000000E+00  0.00000000E+00  0.00000000E+00
  0.00000000E+00  0.00000000E+00  0.00000000E+00  0.00000000E+00  0.00000000E+00
  0.00000000E+00  0.00000000E+00  0.00000000E+00  0.00000000E+00  0.00000000E+00
  1.00000000E+00  0.00000000E+00  0.00000000E+00  0.00000000E+00 -1.81163025E-03
 -2.88483619E-03  0.00000000E+00  0.00000000E+00  0.00000000E+00  1.49359219E-02
  0.00000000E+00  0.00000000E+00  0.00000000E+00 -7.57113411E-03  0.00000000E+00
  0.00000000E+00  0.00000000E+00  4.21701137E-03  0.00000000E+00  0.00000000E+00
  0.00000000E+00 -4.99974255E-01  0.00000000E+00  0.00000000E+00  8.65980812E-01
  0.00000000E+00  0.00000000E+00  0.00000000E+00  0.00000000E+00 -1.29870782E+00
  0.00000000E+00  0.00000000E+00  0.00000000E+00  1.54330262E+00  0.00000000E+00
  0.00000000E+00  0.00000000E+00 -8.40767039E-01  0.00000000E+00  0.00000000E+00
  0.00000000E+00  2.86701749E-01  0.00000000E+00  0.00000000E+00  0.00000000E+00
  0.00000000E+00  0.00000000E+00  0.00000000E+00  0.00000000E+00  0.00000000E+00
  0.00000000E+00  0.00000000E+00 -1.29870782E+00  0.00000000E+00  0.00000000E+00
  0.00000000E+00  1.54330262E+00  0.00000000E+00  0.00000000E+00  0.00000000E+00
 -8.40767039E-01  0.00000000E+00  0.00000000E+00  0.00000000E+00  2.86701749E-01
  0.00000000E+00  0.00000000E+00  0.00000000E+00  0.00000000E+00  0.00000000E+00
  0.00000000E+00  0.00000000E+00 -1.30059141E+00  0.00000000E+00  0.00000000E+00
  0.00000000E+00  1.53862696E+00  0.00000000E+00  0.00000000E+00  0.00000000E+00
 -8.36822150E-01  0.00000000E+00  0.00000000E+00  0.00000000E+00  2.85174751E-01
  0.00000000E+00  0.00000000E+00  0.00000000E+00  0.00000000E+00  0.00000000E+00
  0.00000000E+00  0.00000000E+00 -2.14420270E+00  2.25409658E+00  0.00000000E+00
  0.00000000E+00  0.00000000E+00 -3.25196914E-01  0.00000000E+00  0.00000000E+00
  0.00000000E+00  2.76846450E-01  0.00000000E+00  0.00000000E+00  0.00000000E+00
 -1.04279400E-01  0.00000000E+00  0.00000000E+00  0.00000000E+00  3.46818541E-05
  0.00000000E+00  0.00000000E+00 -6.00707334E-05  0.00000000E+00
Orthonormal basis                          R   N=         484
  2.37258796E-01  2.48792276E-01  0.00000000E+00  0.00000000E+00  0.00000000E+00
  3.14136421E-01  0.00000000E+00  0.00000000E+00  0.00000000E+00  3.10357360E-01
  0.00000000E+00  0.00000000E+00  0.00000000E+00  2.47131997E-01  0.00000000E+00
  0.00000000E+00  0.00000000E+00 -2.08603220E-17  0.00000000E+00  0.00000000E+00
  0.00000000E+00  0.00000000E+00  4.42543018E-01  4.32319358E-01  0.00000000E+00
  0.00000000E+00  0.00000000E+00 -9.06604449E-02  0.00000000E+00  0.00000000E+00
  0.00000000E+00 -3.14228116E-01  0.00000000E+00  0.00000000E+00  0.00000000E+00
 -3.50226540E-01  0.00000000E+00  0.00000000E+00  0.00000000E+00  1.59340170E-17
  0.00000000E+00  0.00000000E+00  0.00000000E+00  0.00000000E+00  0.00000000E+00
  0.00000000E+00  0.00000000E+00  0.00000000E+00  0.00000000E+00  0.00000000E+00
  0.00000000E+00  0.00000000E+00  0.00000000E+00  0.00000000E+00  0.00000000E+00
  0.00000000E+00  0.00000000E+00  0.00000000E+00  0.00000000E+00  0.00000000E+00
  0.00000000E+00  0.00000000E+00  0.00000000E+00  0.00000000E+00  1.00000000E+00
  0.00000000E+00  3.26663306E-17  2.90298169E-17  0.00000000E+00  0.00000000E+00
  0.00000000E+00 -1.18639685E-16  0.00000000E+00  0.00000000E+00  0.00000000E+00
  5.66571983E-17  0.00000000E+00  0.00000000E+00  0.00000000E+00  1.00249567E-16
  0.00000000E+00  0.00000000E+00  0.00000000E+00  1.00000000E+00  0.00000000E+00
  0.00000000E+00  0.00000000E+00  0.00000000E+00 -3.08427338E-01 -1.57173734E-01
  0.00000000E+00  0.00000000E+00  0.00000000E+00  9.94219717E-01  0.00000000E+00
  0.00000000E+00  0.00000000E+00  8.82862496E-02  0.00000000E+00  0.00000000E+00
  0.00000000E+00 -9.20318709E-01  0.00000000E+00  0.00000000E+00  0.00000000E+00
  2.17796360E-16  0.00000000E+00  0.00000000E+00  0.00000000E+00  0.00000000E+00
  1.96171304E+00 -1.92434664E+00  0.00000000E+00  0.00000000E+00  0.00000000E+00
 -3.88719623E-01  0.00000000E+00  0.00000000E+00  0.00000000E+00  9.59313419E-01
  0.00000000E+00  0.00000000E+00  0.00000000E+00 -6.56693937E-01  0.00000000E+00
  0.00000000E+00  0.00000000E+00 -4.85145826E-17  0.00000000E+00  0.00000000E+00
  0.00000000E+00  0.00000000E+00 -8.64888929E-01  1.19710353E+00  0.00000000E+00
  0.00000000E+00  0.00000000E+00 -1.64134123E+00  0.00000000E+00  0.00000000E+00
  0.00000000E+00  2.51469247E+00  0.00000000E+00  0.00000000E+00  0.00000000E+00
 -1.44649769E+00  0.00000000E+00  0.00000000E+00  0.00000000E+00 -1.97272031E-16
  0.00000000E+00  0.00000000E+00  0.00000000E+00  0.00000000E+00  0.00000000E+00
  0.00000000E+00  0.00000000E+00  0.00000000E+00  0.00000000E+00  0.00000000E+00
  0.00000000E+00  0.00000000E+00  0.00000000E+00  0.00000000E+00  0.00000000E+00
  0.00000000E+00  0.00000000E+00  0.00000000E+00  0.00000000E+00  0.00000000E+00
  0.00000000E+00  0.00000000E+00  0.00000000E+00  0.00000000E+00  0.00000000E+00
  1.00000000E+00  0.00000000E+00  0.00000000E+00  0.00000000E+00  0.00000000E+00
  0.00000000E+00  0.00000000E+00  0.00000000E+00  0.00000000E+00  0.00000000E+00
  0.00000000E+00  0.00000000E+00  0.00000000E+00  0.00000000E+00  0.00000000E+00
  0.00000000E+00  0.00000000E+00  0.00000000E+00  0.00000000E+00  1.00000000E+00
  0.00000000E+00  0.00000000E+00  0.00000000E+00  0.00000000E+00  0.00000000E+00
  0.00000000E+00  0.00000000E+00  0.00000000E+00  0.00000000E+00  0.00000000E+00
  0.00000000E+00  0.00000000E+00  0.00000000E+00  0.00000000E+00  0.00000000E+00
  0.00000000E+00  0.00000000E+00  0.00000000E+00  0.00000000E+00  0.00000000E+00
  0.00000000E+00  0.00000000E+00  1.00000000E+00  0.00000000E+00  0.00000000E+00
  0.00000000E+00  0.00000000E+00  0.00000000E+00  0.00000000E+00  2.60374247E-01
  0.00000000E+00  0.00000000E+00  0.00000000E+00  3.75569254E-01  0.00000000E+00
  0.00000000E+00  0.00000000E+00  3.86371087E-01  0.00000000E+00  0.00000000E+00
  0.00000000E+00  2.87220663E-01  0.00000000E+00  0.00000000E+00  0.00000000E+00
  0.00000000E+00  0.00000000E+00  0.00000000E+00  0.00000000E+00  0.00000000E+00
  0.00000000E+00  6.01123738E-01  0.00000000E+00  0.00000000E+00  0.00000000E+00
  3.13723242E-01  0.00000000E+00  0.00000000E+00  0.00000000E+00 -2.96391563E-01