fubar                                                                   
SP        RPBE1PBE                                                    6-311+G(d,p)        
Number of atoms                            I                1
Info1-9                                    I   N=           9
          11          10           0           0           0         110
           1          18       -1302
Full Title                                 C   N=           1
fubar       
Route                                      C   N=           3
#PBE1PBE/6-311+G(d,p) scf=tight     
Charge                                     I               -1
Multiplicity                               I                1
Number of electrons                        I               18
Number of alpha electrons                  I                9
Number of beta electrons                   I                9
Number of basis functions                  I               30
Number of independent functions            I               30
Number of point charges in /Mol/           I                0
Number of translation vectors              I                0
Atomic numbers                             I   N=           1
          17
Nuclear charges                            R   N=           1
  1.70000000E+01
Current cartesian coordinates              R   N=           3
  0.00000000E+00  0.00000000E+00  0.00000000E+00
Number of symbols in /Mol/                 I                0
Int Atom Types                             I   N=           1
           0
Force Field                                I                0
Atom Types                                 C   N=           1
            
MM charges                                 R   N=           1
  0.00000000E+00
Integer atomic weights                     I   N=           1
          35
Real atomic weights                        R   N=           1
  3.49688527E+01
Atom fragment info                         I   N=           1
           0
Atom residue num                           I   N=           1
           0
Nuclear spins                              I   N=           1
           3
Nuclear ZEff                               R   N=           1
 -1.42400000E+01
Nuclear ZNuc                               R   N=           1
  1.70000000E+01
Nuclear QMom                               R   N=           1
 -8.16500000E+00
Nuclear GFac                               R   N=           1
  8.21874000E-01
MicOpt                                     I   N=           1
          -1
Number of residues                         I                0
Number of secondary structures             I                0
SymInf integers                            I   N=          26
           1           8           1           1           1           1
          -1          -1          -1           1          -1          -1
          -1           1          -1          -1          -1          -1
           1           1           1          -1           1           1
           1          -1
RotTr to input orientation                 R   N=          12
  0.00000000E+00  0.00000000E+00 -1.00000000E+00  0.00000000E+00  1.00000000E+00
  0.00000000E+00  1.00000000E+00  0.00000000E+00  0.00000000E+00  0.00000000E+00
  0.00000000E+00  0.00000000E+00
Number of contracted shells                I               13
Number of primitive shells                 I               25
Pure/Cartesian d shells                    I                0
Pure/Cartesian f shells                    I                0
Highest angular momentum                   I                2
Largest degree of contraction              I                6
Shell types                                I   N=          13
           0           0           0           0           0           0
          -1           1           1           1           1           1
          -2
Number of primitives per shell             I   N=          13
           6           3           1           1           1           1
           1           5           2           1           1           1
           1
Shell to atom map                          I   N=          13
           1           1           1           1           1           1
           1           1           1           1           1           1
           1
Primitive exponents                        R   N=          25
  1.05819000E+05  1.58720000E+04  3.61965000E+03  1.03080000E+03  3.39908000E+02
  1.24538000E+02  1.24538000E+02  4.95135000E+01  2.08056000E+01  6.58346000E+00
  2.56468000E+00  5.59763000E-01  1.83273000E-01  4.83000000E-02  5.89776000E+02
  1.39849000E+02  4.51413000E+01  1.68733000E+01  2.77152000E+00  6.74110000E+00
  2.77152000E+00  1.02387000E+00  3.81368000E-01  1.09437000E-01  7.50000000E-01
Contraction coefficients                   R   N=          25
  7.38000247E-04  5.71800191E-03  2.94950099E-02  1.17286039E-01  3.62949121E-01
  5.84149195E-01  1.34176973E-01  6.24249876E-01  2.91755942E-01  1.00000000E+00
  1.00000000E+00  1.00000000E+00  1.00000000E+00  1.00000000E+00  3.66556935E-03
  2.83679194E-02  1.24756603E-01  3.39654631E-01  7.47585963E-01 -1.57224381E+00
  9.92388882E-01  1.00000000E+00  1.00000000E+00  1.00000000E+00  1.00000000E+00
P(S=P) Contraction coefficients            R   N=          25
  0.00000000E+00  0.00000000E+00  0.00000000E+00  0.00000000E+00  0.00000000E+00
  0.00000000E+00  0.00000000E+00  0.00000000E+00  0.00000000E+00  0.00000000E+00
  0.00000000E+00  0.00000000E+00  0.00000000E+00  1.00000000E+00  0.00000000E+00
  0.00000000E+00  0.00000000E+00  0.00000000E+00  0.00000000E+00  0.00000000E+00
  0.00000000E+00  0.00000000E+00  0.00000000E+00  0.00000000E+00  0.00000000E+00
Coordinates of each shell                  R   N=          39
  0.00000000E+00  0.00000000E+00  0.00000000E+00  0.00000000E+00  0.00000000E+00
  0.00000000E+00  0.00000000E+00  0.00000000E+00  0.00000000E+00  0.00000000E+00
  0.00000000E+00  0.00000000E+00  0.00000000E+00  0.00000000E+00  0.00000000E+00
  0.00000000E+00  0.00000000E+00  0.00000000E+00  0.00000000E+00  0.00000000E+00
  0.00000000E+00  0.00000000E+00  0.00000000E+00  0.00000000E+00  0.00000000E+00
  0.00000000E+00  0.00000000E+00  0.00000000E+00  0.00000000E+00  0.00000000E+00
  0.00000000E+00  0.00000000E+00  0.00000000E+00  0.00000000E+00  0.00000000E+00
  0.00000000E+00  0.00000000E+00  0.00000000E+00  0.00000000E+00
Num ILSW                                   I              100
ILSW                                       I   N=         100
           0           0           0           0           2           0
           0           0           0           0        1009          -1
           5           0           0           0           0           0
           0           0           0           0           0           0
           1           0           0           0           0           0
           0           0      100000           0          -1           0
           0           0           0           0           0           0
           0           0           0           1           0           0
           0 -2000000000           1           0           0           0
           0           0           4          52           0           0
           0           0          13           0           0           0
           0           0           0           1           0           1
           0           0           0           0           0           0
           0           0           0           0           0           0
           0           0           0           0           0           0
           0           0           0           0           0           0
           0           0           0           0
Num RLSW                                   I               52
RLSW                                       R   N=          52
  7.50000000E-01  7.50000000E-01  1.00000000E+00  1.00000000E+00  2.50000000E-01
  0.00000000E+00  0.00000000E+00  1.00000000E+00  0.00000000E+00  0.00000000E+00
  0.00000000E+00  0.00000000E+00  1.00000000E+00  0.00000000E+00  0.00000000E+00
  0.00000000E+00  0.00000000E+00  1.00000000E+00  0.00000000E+00  0.00000000E+00
  0.00000000E+00  0.00000000E+00  1.00000000E+00  0.00000000E+00  0.00000000E+00
  0.00000000E+00  0.00000000E+00  1.00000000E+00  0.00000000E+00  0.00000000E+00
  0.00000000E+00  0.00000000E+00  1.00000000E+00  0.00000000E+00  0.00000000E+00
  0.00000000E+00  0.00000000E+00  0.00000000E+00  1.00000000E+00  1.00000000E+00
  0.00000000E+00  1.00000000E+00  0.00000000E+00  0.00000000E+00  0.00000000E+00
  0.00000000E+00  0.00000000E+00  0.00000000E+00  0.00000000E+00  0.00000000E+00
  0.00000000E+00  0.00000000E+00
MxBond                                     I                1
NBond                                      I   N=           1
           0
IBond                                      I   N=           1
           0
RBond                                      R   N=           1
  0.00000000E+00
Virial Ratio                               R      2.001998847937896E+00
SCF Energy                                 R     -4.601293419754819E+02
Total Energy                               R     -4.601293419754819E+02
RMS Density                                R      3.013688583134628E-09
Job Status                                 I                1
Nuclear derivative order                   I                0
External E-field                           R   N=          35
  0.00000000E+00  0.00000000E+00  0.00000000E+00  0.00000000E+00  0.00000000E+00
  0.00000000E+00  0.00000000E+00  0.00000000E+00  0.00000000E+00  0.00000000E+00
  0.00000000E+00  0.00000000E+00  0.00000000E+00  0.00000000E+00  0.00000000E+00
  0.00000000E+00  0.00000000E+00  0.00000000E+00  0.00000000E+00  0.00000000E+00
  0.00000000E+00  0.00000000E+00  0.00000000E+00  0.00000000E+00  0.00000000E+00
  0.00000000E+00  0.00000000E+00  0.00000000E+00  0.00000000E+00  0.00000000E+00
  0.00000000E+00  0.00000000E+00  0.00000000E+00  0.00000000E+00  0.00000000E+00
IOpCl                                      I                0
IROHF                                      I                0
Alpha Orbital Energies                     R   N=          30
 -1.01400829E+02 -9.20868855E+00 -6.93943415E+00 -6.93943415E+00 -6.93943415E+00
 -4.96131306E-01 -3.51289184E-02 -3.51289184E-02 -3.51289184E-02  2.40182636E-01
  2.46561118E-01  2.46561118E-01  2.46561118E-01  7.06903560E-01  7.06903560E-01
  7.06903560E-01  1.10132332E+00  1.19546889E+00  1.19546889E+00  1.19546889E+00
  1.19546889E+00  1.19546889E+00  2.56742805E+00  2.56742805E+00  2.56742805E+00
  9.85348263E+00  2.61404788E+01  2.61404788E+01  2.61404788E+01  2.16007150E+02
Alpha MO coefficients                      R   N=         900
  4.11779111E-01  6.53977050E-01  1.47346944E-02 -3.63337847E-03  1.19295181E-03
 -6.23005913E-04  1.71782093E-04  0.00000000E+00  0.00000000E+00  0.00000000E+00
  0.00000000E+00  0.00000000E+00  0.00000000E+00  0.00000000E+00  0.00000000E+00
  0.00000000E+00  0.00000000E+00  0.00000000E+00  0.00000000E+00  0.00000000E+00
  0.00000000E+00  0.00000000E+00  0.00000000E+00  0.00000000E+00  0.00000000E+00
 -5.71280362E-16  0.00000000E+00  0.00000000E+00  7.10471967E-17  0.00000000E+00
 -1.21830405E-01 -3.27771767E-01  5.00083212E-01  6.10317208E-01  5.31732816E-02
 -1.56880032E-02  3.96167554E-03  0.00000000E+00  0.00000000E+00  0.00000000E+00
  0.00000000E+00  0.00000000E+00  0.00000000E+00  0.00000000E+00  0.00000000E+00
  0.00000000E+00  0.00000000E+00  0.00000000E+00  0.00000000E+00  0.00000000E+00
  0.00000000E+00  0.00000000E+00  0.00000000E+00  0.00000000E+00  0.00000000E+00
  1.63980367E-16  0.00000000E+00  0.00000000E+00 -3.31631490E-16  0.00000000E+00
  0.00000000E+00  0.00000000E+00  0.00000000E+00  0.00000000E+00  0.00000000E+00
  0.00000000E+00  0.00000000E+00  0.00000000E+00 -1.25495332E-04  0.00000000E+00
  0.00000000E+00  8.03219409E-01  0.00000000E+00  0.00000000E+00 -2.74500763E-01
  0.00000000E+00  0.00000000E+00  5.33917018E-02  0.00000000E+00  0.00000000E+00
 -1.56604155E-03  0.00000000E+00  0.00000000E+00  3.96826981E-04  0.00000000E+00
  0.00000000E+00  0.00000000E+00  0.00000000E+00  0.00000000E+00  0.00000000E+00
  0.00000000E+00  0.00000000E+00  0.00000000E+00  0.00000000E+00  0.00000000E+00
  0.00000000E+00  0.00000000E+00  0.00000000E+00  0.00000000E+00 -1.25495332E-04
  0.00000000E+00  0.00000000E+00  8.03219409E-01  0.00000000E+00  0.00000000E+00
 -2.74500763E-01  0.00000000E+00  0.00000000E+00  5.33917018E-02  0.00000000E+00
  0.00000000E+00 -1.56604155E-03  0.00000000E+00  0.00000000E+00  3.96826981E-04
  0.00000000E+00  0.00000000E+00  0.00000000E+00  0.00000000E+00  0.00000000E+00
  0.00000000E+00  0.00000000E+00  0.00000000E+00  0.00000000E+00  0.00000000E+00
  0.00000000E+00  0.00000000E+00 -1.25495332E-04  0.00000000E+00  0.00000000E+00
  8.03219409E-01  0.00000000E+00  0.00000000E+00 -2.74500763E-01  0.00000000E+00
  0.00000000E+00  5.33917018E-02  0.00000000E+00  0.00000000E+00 -1.56604155E-03
  0.00000000E+00  0.00000000E+00  3.96826981E-04  0.00000000E+00  0.00000000E+00
  0.00000000E+00  0.00000000E+00  0.00000000E+00  0.00000000E+00  0.00000000E+00
  3.78159561E-02  1.08354522E-01 -2.18895465E-01 -4.10805152E-01  6.19180133E-01
  5.78689062E-01  1.88233533E-02  0.00000000E+00  0.00000000E+00  0.00000000E+00
  0.00000000E+00  0.00000000E+00  0.00000000E+00  0.00000000E+00  0.00000000E+00
  0.00000000E+00  0.00000000E+00  0.00000000E+00  0.00000000E+00  0.00000000E+00
  0.00000000E+00  0.00000000E+00  0.00000000E+00  0.00000000E+00  0.00000000E+00
 -5.26071782E-16  0.00000000E+00  0.00000000E+00 -5.82299092E-17  0.00000000E+00
  0.00000000E+00  0.00000000E+00  0.00000000E+00  0.00000000E+00  0.00000000E+00
  0.00000000E+00  0.00000000E+00  6.11877092E-02  0.00000000E+00  0.00000000E+00
 -2.14198624E-01  0.00000000E+00  0.00000000E+00  8.08048142E-02  0.00000000E+00
  0.00000000E+00  2.39649182E-01  0.00000000E+00  0.00000000E+00  5.35644208E-01
  0.00000000E+00  0.00000000E+00  3.77706521E-01  0.00000000E+00  0.00000000E+00
  0.00000000E+00  0.00000000E+00  0.00000000E+00  0.00000000E+00  0.00000000E+00
  0.00000000E+00  0.00000000E+00  0.00000000E+00  0.00000000E+00  0.00000000E+00
  0.00000000E+00  0.00000000E+00  0.00000000E+00  0.00000000E+00  6.11877092E-02
  0.00000000E+00  0.00000000E+00 -2.14198624E-01  0.00000000E+00  0.00000000E+00
  8.08048142E-02  0.00000000E+00  0.00000000E+00  2.39649182E-01  0.00000000E+00
  0.00000000E+00  5.35644208E-01  0.00000000E+00  0.00000000E+00  3.77706521E-01
  0.00000000E+00  0.00000000E+00  0.00000000E+00  0.00000000E+00  0.00000000E+00
  0.00000000E+00  0.00000000E+00  0.00000000E+00  0.00000000E+00  0.00000000E+00
  0.00000000E+00  0.00000000E+00  0.00000000E+00  6.11877092E-02  0.00000000E+00
  0.00000000E+00 -2.14198624E-01  0.00000000E+00  0.00000000E+00  8.08048142E-02
  0.00000000E+00  0.00000000E+00  2.39649182E-01  0.00000000E+00  0.00000000E+00
  5.35644208E-01  0.00000000E+00  0.00000000E+00  3.77706521E-01  0.00000000E+00
  0.00000000E+00  0.00000000E+00  0.00000000E+00  0.00000000E+00  0.00000000E+00
 -1.08128073E-02 -3.21060821E-02  7.44976086E-02  9.40042547E-02 -5.52287093E-02
 -9.41048731E-01  1.45602465E+00  0.00000000E+00  0.00000000E+00  0.00000000E+00
  0.00000000E+00  0.00000000E+00  0.00000000E+00  0.00000000E+00  0.00000000E+00
  0.00000000E+00  0.00000000E+00  0.00000000E+00  0.00000000E+00  0.00000000E+00
  0.00000000E+00  0.00000000E+00  0.00000000E+00  0.00000000E+00  0.00000000E+00
 -1.31837775E-16  0.00000000E+00  0.00000000E+00 -2.55134411E-16  0.00000000E+00
  0.00000000E+00  0.00000000E+00  0.00000000E+00  0.00000000E+00  0.00000000E+00
  0.00000000E+00  0.00000000E+00  1.56514175E+00  0.00000000E+00  0.00000000E+00
  7.89187695E-02  0.00000000E+00  0.00000000E+00 -2.56412971E-02  0.00000000E+00
  0.00000000E+00 -1.27542331E-01  0.00000000E+00  0.00000000E+00 -5.24871963E-02
  0.00000000E+00  0.00000000E+00 -9.12795902E-01  0.00000000E+00  0.00000000E+00
  0.00000000E+00  0.00000000E+00  0.00000000E+00  0.00000000E+00  0.00000000E+00
  0.00000000E+00  0.00000000E+00  0.00000000E+00  0.00000000E+00  0.00000000E+00
  0.00000000E+00  0.00000000E+00  0.00000000E+00  0.00000000E+00  1.56514175E+00
  0.00000000E+00  0.00000000E+00  7.89187695E-02  0.00000000E+00  0.00000000E+00
 -2.56412971E-02  0.00000000E+00  0.00000000E+00 -1.27542331E-01  0.00000000E+00
  0.00000000E+00 -5.24871963E-02  0.00000000E+00  0.00000000E+00 -9.12795902E-01
  0.00000000E+00  0.00000000E+00  0.00000000E+00  0.00000000E+00  0.00000000E+00
  0.00000000E+00  0.00000000E+00  0.00000000E+00  0.00000000E+00  0.00000000E+00
  0.00000000E+00  0.00000000E+00  0.00000000E+00  1.56514175E+00  0.00000000E+00
  0.00000000E+00  7.89187695E-02  0.00000000E+00  0.00000000E+00 -2.56412971E-02
  0.00000000E+00  0.00000000E+00 -1.27542331E-01  0.00000000E+00  0.00000000E+00
 -5.24871963E-02  0.00000000E+00  0.00000000E+00 -9.12795902E-01  0.00000000E+00
  0.00000000E+00  0.00000000E+00  0.00000000E+00  0.00000000E+00  0.00000000E+00
  0.00000000E+00  0.00000000E+00  0.00000000E+00  0.00000000E+00  0.00000000E+00
  0.00000000E+00  0.00000000E+00  0.00000000E+00 -1.14867520E+00  0.00000000E+00
  0.00000000E+00  1.49232003E-01  0.00000000E+00  0.00000000E+00 -7.10849952E-02
  0.00000000E+00  0.00000000E+00 -8.24647586E-02  0.00000000E+00  0.00000000E+00
 -1.14169651E+00  0.00000000E+00  0.00000000E+00  2.15485114E+00  0.00000000E+00
  0.00000000E+00  0.00000000E+00  0.00000000E+00  0.00000000E+00  0.00000000E+00
  0.00000000E+00  0.00000000E+00  0.00000000E+00  0.00000000E+00  0.00000000E+00
  0.00000000E+00  0.00000000E+00 -1.14867520E+00  0.00000000E+00  0.00000000E+00
  1.49232003E-01  0.00000000E+00  0.00000000E+00 -7.10849952E-02  0.00000000E+00
  0.00000000E+00 -8.24647586E-02  0.00000000E+00  0.00000000E+00 -1.14169651E+00
  0.00000000E+00  0.00000000E+00  2.15485114E+00  0.00000000E+00  0.00000000E+00
  0.00000000E+00  0.00000000E+00  0.00000000E+00  0.00000000E+00  0.00000000E+00
  0.00000000E+00  0.00000000E+00  0.00000000E+00  0.00000000E+00  0.00000000E+00
  0.00000000E+00  0.00000000E+00  0.00000000E+00  0.00000000E+00 -1.14867520E+00
  0.00000000E+00  0.00000000E+00  1.49232003E-01  0.00000000E+00  0.00000000E+00
 -7.10849952E-02  0.00000000E+00  0.00000000E+00 -8.24647586E-02  0.00000000E+00
  0.00000000E+00 -1.14169651E+00  0.00000000E+00  0.00000000E+00  2.15485114E+00
  0.00000000E+00  0.00000000E+00  0.00000000E+00  0.00000000E+00  0.00000000E+00
 -3.70408041E-02 -1.01083665E-01  1.60121750E-01  6.88453051E-01 -2.44160934E+00
  2.55505564E+00 -8.65146457E-01  0.00000000E+00  0.00000000E+00  0.00000000E+00
  0.00000000E+00  0.00000000E+00  0.00000000E+00  0.00000000E+00  0.00000000E+00
  0.00000000E+00  0.00000000E+00  0.00000000E+00  0.00000000E+00  0.00000000E+00
  0.00000000E+00  0.00000000E+00  0.00000000E+00  0.00000000E+00  0.00000000E+00
  2.80159581E-14  0.00000000E+00  0.00000000E+00 -1.32476429E-14  0.00000000E+00
  0.00000000E+00  0.00000000E+00  0.00000000E+00  0.00000000E+00  0.00000000E+00
  0.00000000E+00  0.00000000E+00  0.00000000E+00  0.00000000E+00  0.00000000E+00
  0.00000000E+00  0.00000000E+00  0.00000000E+00  0.00000000E+00  0.00000000E+00
  0.00000000E+00  0.00000000E+00  0.00000000E+00  0.00000000E+00  0.00000000E+00
  0.00000000E+00  0.00000000E+00  0.00000000E+00  0.00000000E+00  0.00000000E+00
  0.00000000E+00  0.00000000E+00  0.00000000E+00  0.00000000E+00  1.00000000E+00
  0.00000000E+00  0.00000000E+00  0.00000000E+00  0.00000000E+00  0.00000000E+00
  0.00000000E+00  0.00000000E+00  0.00000000E+00  0.00000000E+00  0.00000000E+00
  0.00000000E+00  0.00000000E+00  0.00000000E+00  0.00000000E+00  0.00000000E+00
  0.00000000E+00  0.00000000E+00  0.00000000E+00  0.00000000E+00  0.00000000E+00
  0.00000000E+00  0.00000000E+00  0.00000000E+00  0.00000000E+00  0.00000000E+00
  0.00000000E+00  0.00000000E+00  1.00000000E+00  0.00000000E+00  0.00000000E+00
  0.00000000E+00  0.00000000E+00  0.00000000E+00  0.00000000E+00  0.00000000E+00
  0.00000000E+00  0.00000000E+00  0.00000000E+00  0.00000000E+00  0.00000000E+00
  0.00000000E+00  0.00000000E+00  0.00000000E+00  0.00000000E+00  0.00000000E+00
  0.00000000E+00  0.00000000E+00  0.00000000E+00  0.00000000E+00  0.00000000E+00
  0.00000000E+00  0.00000000E+00  0.00000000E+00  0.00000000E+00  0.00000000E+00
  0.00000000E+00  1.00000000E+00  0.00000000E+00  0.00000000E+00  0.00000000E+00
 -6.83203538E-16 -1.87717296E-15  4.20698981E-15  6.42061627E-15 -3.04476204E-14
  3.21092588E-14 -1.00358247E-14  0.00000000E+00  0.00000000E+00  0.00000000E+00
  0.00000000E+00  0.00000000E+00  0.00000000E+00  0.00000000E+00  0.00000000E+00
  0.00000000E+00  0.00000000E+00  0.00000000E+00  0.00000000E+00  0.00000000E+00
  0.00000000E+00  0.00000000E+00  0.00000000E+00  0.00000000E+00  0.00000000E+00
  4.38437289E-04  0.00000000E+00  0.00000000E+00  9.99999904E-01  0.00000000E+00
  1.07201663E-15  2.83171306E-15 -3.87723391E-15 -2.15207213E-14  7.27640005E-14
 -7.55739707E-14  2.62348970E-14  0.00000000E+00  0.00000000E+00  0.00000000E+00
  0.00000000E+00  0.00000000E+00  0.00000000E+00  0.00000000E+00  0.00000000E+00
  0.00000000E+00  0.00000000E+00  0.00000000E+00  0.00000000E+00  0.00000000E+00
  0.00000000E+00  0.00000000E+00  0.00000000E+00  0.00000000E+00  0.00000000E+00
  9.99999904E-01  0.00000000E+00  0.00000000E+00 -4.38437289E-04  0.00000000E+00
  0.00000000E+00  0.00000000E+00  0.00000000E+00  0.00000000E+00  0.00000000E+00
  0.00000000E+00  0.00000000E+00  5.08173065E-01  0.00000000E+00  0.00000000E+00
  5.12902231E-01  0.00000000E+00  0.00000000E+00 -1.26309379E-01  0.00000000E+00
  0.00000000E+00 -1.97390345E+00  0.00000000E+00  0.00000000E+00  2.07006127E+00
  0.00000000E+00  0.00000000E+00 -1.16431962E+00  0.00000000E+00  0.00000000E+00
  0.00000000E+00  0.00000000E+00  0.00000000E+00  0.00000000E+00  0.00000000E+00
  0.00000000E+00  0.00000000E+00  0.00000000E+00  0.00000000E+00  0.00000000E+00
  0.00000000E+00  0.00000000E+00  0.00000000E+00  5.08173065E-01  0.00000000E+00
  0.00000000E+00  5.12902231E-01  0.00000000E+00  0.00000000E+00 -1.26309379E-01
  0.00000000E+00  0.00000000E+00 -1.97390345E+00  0.00000000E+00  0.00000000E+00
  2.07006127E+00  0.00000000E+00  0.00000000E+00 -1.16431962E+00  0.00000000E+00
  0.00000000E+00  0.00000000E+00  0.00000000E+00  0.00000000E+00  0.00000000E+00
  0.00000000E+00  0.00000000E+00  0.00000000E+00  0.00000000E+00  0.00000000E+00
  0.00000000E+00  0.00000000E+00  0.00000000E+00  0.00000000E+00  5.08173065E-01
  0.00000000E+00  0.00000000E+00  5.12902231E-01  0.00000000E+00  0.00000000E+00
 -1.26309379E-01  0.00000000E+00  0.00000000E+00 -1.97390345E+00  0.00000000E+00
  0.00000000E+00  2.07006127E+00  0.00000000E+00  0.00000000E+00 -1.16431962E+00
  0.00000000E+00  0.00000000E+00  0.00000000E+00  0.00000000E+00  0.00000000E+00
  1.18341004E-01  4.80750001E-01 -2.64106411E+00  3.07336370E+00 -1.67732988E+00
  9.02641522E-01 -2.46231486E-01  0.00000000E+00  0.00000000E+00  0.00000000E+00
  0.00000000E+00  0.00000000E+00  0.00000000E+00  0.00000000E+00  0.00000000E+00
  0.00000000E+00  0.00000000E+00  0.00000000E+00  0.00000000E+00  0.00000000E+00
  0.00000000E+00  0.00000000E+00  0.00000000E+00  0.00000000E+00  0.00000000E+00
 -2.31561815E-16  0.00000000E+00  0.00000000E+00  9.18806836E-16  0.00000000E+00
  0.00000000E+00  0.00000000E+00  0.00000000E+00  0.00000000E+00  0.00000000E+00
  0.00000000E+00  0.00000000E+00  0.00000000E+00 -2.52079112E-01  0.00000000E+00
  0.00000000E+00 -2.21790330E+00  0.00000000E+00  0.00000000E+00 -1.76451295E+00
  0.00000000E+00  0.00000000E+00  2.40231125E+00  0.00000000E+00  0.00000000E+00
 -1.23240268E+00  0.00000000E+00  0.00000000E+00  5.69993506E-01  0.00000000E+00
  0.00000000E+00  0.00000000E+00  0.00000000E+00  0.00000000E+00  0.00000000E+00
  0.00000000E+00  0.00000000E+00  0.00000000E+00  0.00000000E+00  0.00000000E+00
  0.00000000E+00  0.00000000E+00 -2.52079112E-01  0.00000000E+00  0.00000000E+00
 -2.21790330E+00  0.00000000E+00  0.00000000E+00 -1.76451295E+00  0.00000000E+00
  0.00000000E+00  2.40231125E+00  0.00000000E+00  0.00000000E+00 -1.23240268E+00
  0.00000000E+00  0.00000000E+00  5.69993506E-01  0.00000000E+00  0.00000000E+00
  0.00000000E+00  0.00000000E+00  0.00000000E+00  0.00000000E+00  0.00000000E+00
  0.00000000E+00  0.00000000E+00  0.00000000E+00  0.00000000E+00  0.00000000E+00
  0.00000000E+00  0.00000000E+00  0.00000000E+00  0.00000000E+00 -2.52079112E-01
  0.00000000E+00  0.00000000E+00 -2.21790330E+00  0.00000000E+00  0.00000000E+00
 -1.76451295E+00  0.00000000E+00  0.00000000E+00  2.40231125E+00  0.00000000E+00
  0.00000000E+00 -1.23240268E+00  0.00000000E+00  0.00000000E+00  5.69993506E-01
  0.00000000E+00  0.00000000E+00  0.00000000E+00  0.00000000E+00  0.00000000E+00
 -1.54160041E+00  1.91463459E+00 -1.43603904E+00  9.57408410E-01 -3.78973085E-01
  1.99268658E-01 -5.53993793E-02  0.00000000E+00  0.00000000E+00  0.00000000E+00
  0.00000000E+00  0.00000000E+00  0.00000000E+00  0.00000000E+00  0.00000000E+00
  0.00000000E+00  0.00000000E+00  0.00000000E+00  0.00000000E+00  0.00000000E+00
  0.00000000E+00  0.00000000E+00  0.00000000E+00  0.00000000E+00  0.00000000E+00
 -2.84592329E-16  0.00000000E+00  0.00000000E+00  8.58464133E-18  0.00000000E+00
Orthonormal basis                          R   N=         900
  1.09876702E-01  1.74621827E-01  2.46946574E-01  2.69708905E-01  2.63691521E-01
  2.29588823E-01  1.59080944E-01  0.00000000E+00  0.00000000E+00  0.00000000E+00
  0.00000000E+00  0.00000000E+00  0.00000000E+00  0.00000000E+00  0.00000000E+00
  0.00000000E+00  0.00000000E+00  0.00000000E+00  0.00000000E+00  0.00000000E+00
  0.00000000E+00  0.00000000E+00  0.00000000E+00  0.00000000E+00  0.00000000E+00
  4.12776066E-17  0.00000000E+00  0.00000000E+00 -5.45676925E-18  0.00000000E+00
  3.33603237E-01  3.69670345E-01  2.09710956E-01  6.50779656E-02 -1.97834178E-01
 -3.10997095E-01 -2.95312497E-01  0.00000000E+00  0.00000000E+00  0.00000000E+00
  0.00000000E+00  0.00000000E+00  0.00000000E+00  0.00000000E+00  0.00000000E+00
  0.00000000E+00  0.00000000E+00  0.00000000E+00  0.00000000E+00  0.00000000E+00
  0.00000000E+00  0.00000000E+00  0.00000000E+00  0.00000000E+00  0.00000000E+00
 -7.71682780E-17  0.00000000E+00  0.00000000E+00 -4.12039116E-19  0.00000000E+00
  5.19226427E-01  2.73592617E-01 -3.39178870E-01 -4.25230013E-01 -9.90863795E-02
  2.35618641E-01  4.12708658E-01  0.00000000E+00  0.00000000E+00  0.00000000E+00
  0.00000000E+00  0.00000000E+00  0.00000000E+00  0.00000000E+00  0.00000000E+00
  0.00000000E+00  0.00000000E+00  0.00000000E+00  0.00000000E+00  0.00000000E+00
  0.00000000E+00  0.00000000E+00  0.00000000E+00  0.00000000E+00  0.00000000E+00
  1.84542637E-16  0.00000000E+00  0.00000000E+00  1.22213975E-16  0.00000000E+00
 -1.15435809E-16 -3.99315095E-17  1.10143919E-16  1.07955551E-16 -1.45238400E-16
  4.92356225E-17 -2.14996506E-16  0.00000000E+00  0.00000000E+00  0.00000000E+00
  0.00000000E+00  0.00000000E+00  0.00000000E+00  0.00000000E+00  0.00000000E+00
  0.00000000E+00  0.00000000E+00  0.00000000E+00  0.00000000E+00  0.00000000E+00
  0.00000000E+00  0.00000000E+00  0.00000000E+00  0.00000000E+00  0.00000000E+00
  6.89931298E-01  0.00000000E+00  0.00000000E+00  7.23874854E-01  0.00000000E+00
  3.73509667E-28 -8.08986566E-19 -1.36639388E-17  9.38588640E-17 -2.11158433E-16
  9.80691789E-17 -1.40045425E-16  0.00000000E+00  0.00000000E+00  0.00000000E+00
  0.00000000E+00  0.00000000E+00  0.00000000E+00  0.00000000E+00  0.00000000E+00
  0.00000000E+00  0.00000000E+00  0.00000000E+00  0.00000000E+00  0.00000000E+00
  0.00000000E+00  0.00000000E+00  0.00000000E+00  0.00000000E+00  0.00000000E+00
  7.23874854E-01  0.00000000E+00  0.00000000E+00 -6.89931298E-01  0.00000000E+00
 -4.67147098E-01  1.85406759E-01  5.60096256E-01  1.04796338E-02 -7.94624034E-01
 -2.24750581E-01  8.73442486E-01  0.00000000E+00  0.00000000E+00  0.00000000E+00
  0.00000000E+00  0.00000000E+00  0.00000000E+00  0.00000000E+00  0.00000000E+00
  0.00000000E+00  0.00000000E+00  0.00000000E+00  0.00000000E+00  0.00000000E+00
  0.00000000E+00  0.00000000E+00  0.00000000E+00  0.00000000E+00  0.00000000E+00
 -3.30106119E-17  0.00000000E+00  0.00000000E+00 -1.05607917E-17  0.00000000E+00
 -1.12674742E+00  1.29953249E+00  1.00734708E-01 -8.84308344E-01  2.27792673E-01
  6.12920275E-01 -5.67511987E-01  0.00000000E+00  0.00000000E+00  0.00000000E+00
  0.00000000E+00  0.00000000E+00  0.00000000E+00  0.00000000E+00  0.00000000E+00
  0.00000000E+00  0.00000000E+00  0.00000000E+00  0.00000000E+00  0.00000000E+00
  0.00000000E+00  0.00000000E+00  0.00000000E+00  0.00000000E+00  0.00000000E+00
 -8.43360205E-17  0.00000000E+00  0.00000000E+00 -7.97049461E-17  0.00000000E+00
  6.78289480E-01 -1.18451310E+00  1.55144208E+00 -7.86888441E-01 -1.21345888E+00
  1.90768145E+00 -9.84293747E-01  0.00000000E+00  0.00000000E+00  0.00000000E+00
  0.00000000E+00  0.00000000E+00  0.00000000E+00  0.00000000E+00  0.00000000E+00
  0.00000000E+00  0.00000000E+00  0.00000000E+00  0.00000000E+00  0.00000000E+00
  0.00000000E+00  0.00000000E+00  0.00000000E+00  0.00000000E+00  0.00000000E+00
 -7.40098303E-16  0.00000000E+00  0.00000000E+00 -7.05474546E-17  0.00000000E+00
 -4.86864682E-01  1.04250775E+00 -2.53298258E+00  3.11883917E+00 -2.65207208E+00
  2.08161004E+00 -7.71948700E-01  0.00000000E+00  0.00000000E+00  0.00000000E+00
  0.00000000E+00  0.00000000E+00  0.00000000E+00  0.00000000E+00  0.00000000E+00
  0.00000000E+00  0.00000000E+00  0.00000000E+00  0.00000000E+00  0.00000000E+00
  0.00000000E+00  0.00000000E+00  0.00000000E+00  0.00000000E+00  0.00000000E+00
 -1.59980122E-15  0.00000000E+00  0.00000000E+00  5.89899753E-17  0.00000000E+00
  0.00000000E+00  0.00000000E+00  0.00000000E+00  0.00000000E+00  0.00000000E+00
  0.00000000E+00  0.00000000E+00  0.00000000E+00  0.00000000E+00  0.00000000E+00