fubar                                                                   
SP        UPBE1PBE                                                    6-311+G(d,p)        
Number of atoms                            I                1
Info1-9                                    I   N=           9
          11          10           0           0           0         110
           1          18       -1302
Full Title                                 C   N=           1
fubar       
Route                                      C   N=           3
#PBE1PBE/6-311+G(d,p) scf=tight     
Charge                                     I                2
Multiplicity                               I                2
Number of electrons                        I                5
Number of alpha electrons                  I                3
Number of beta electrons                   I                2
Number of basis functions                  I               22
Number of independent functions            I               22
Number of point charges in /Mol/           I                0
Number of translation vectors              I                0
Atomic numbers                             I   N=           1
           7
Nuclear charges                            R   N=           1
  7.00000000E+00
Current cartesian coordinates              R   N=           3
  0.00000000E+00  0.00000000E+00  0.00000000E+00
Number of symbols in /Mol/                 I                0
Int Atom Types                             I   N=           1
           0
Force Field                                I                0
Atom Types                                 C   N=           1
            
MM charges                                 R   N=           1
  0.00000000E+00
Integer atomic weights                     I   N=           1
          14
Real atomic weights                        R   N=           1
  1.40030740E+01
Atom fragment info                         I   N=           1
           0
Atom residue num                           I   N=           1
           0
Nuclear spins                              I   N=           1
           2
Nuclear ZEff                               R   N=           1
 -4.55000000E+00
Nuclear ZNuc                               R   N=           1
  7.00000000E+00
Nuclear QMom                               R   N=           1
  2.04400000E+00
Nuclear GFac                               R   N=           1
  4.03761000E-01
MicOpt                                     I   N=           1
          -1
Number of residues                         I                0
Number of secondary structures             I                0
SymInf integers                            I   N=          26
           1           8           1           1           1           1
          -1          -1          -1           1          -1          -1
          -1           1          -1          -1          -1          -1
           1           1           1          -1           1           1
           1          -1
RotTr to input orientation                 R   N=          12
  0.00000000E+00  0.00000000E+00 -1.00000000E+00  0.00000000E+00  1.00000000E+00
  0.00000000E+00  1.00000000E+00  0.00000000E+00  0.00000000E+00  0.00000000E+00
  0.00000000E+00  0.00000000E+00
Number of contracted shells                I                6
Number of primitive shells                 I               13
Pure/Cartesian d shells                    I                0
Pure/Cartesian f shells                    I                0
Highest angular momentum                   I                2
Largest degree of contraction              I                6
Shell types                                I   N=           6
           0          -1          -1          -1          -1          -2
Number of primitives per shell             I   N=           6
           6           3           1           1           1           1
Shell to atom map                          I   N=           6
           1           1           1           1           1           1
Primitive exponents                        R   N=          13
  6.29348000E+03  9.49044000E+02  2.18776000E+02  6.36916000E+01  1.88282000E+01
  2.72023000E+00  3.06331000E+01  7.02614000E+00  2.11205000E+00  6.84009000E-01
  2.00878000E-01  6.39000000E-02  9.13000000E-01
Contraction coefficients                   R   N=          13
  1.96978815E-03  1.49612859E-02  7.35005308E-02  2.48936766E-01  6.02459433E-01
  2.56201759E-01  1.11906080E-01  9.21666655E-01 -2.56919183E-03  1.00000000E+00
  1.00000000E+00  1.00000000E+00  1.00000000E+00
P(S=P) Contraction coefficients            R   N=          13
  0.00000000E+00  0.00000000E+00  0.00000000E+00  0.00000000E+00  0.00000000E+00
  0.00000000E+00  3.83119186E-02  2.37403116E-01  8.17592398E-01  1.00000000E+00
  1.00000000E+00  1.00000000E+00  0.00000000E+00
Coordinates of each shell                  R   N=          18
  0.00000000E+00  0.00000000E+00  0.00000000E+00  0.00000000E+00  0.00000000E+00
  0.00000000E+00  0.00000000E+00  0.00000000E+00  0.00000000E+00  0.00000000E+00
  0.00000000E+00  0.00000000E+00  0.00000000E+00  0.00000000E+00  0.00000000E+00
  0.00000000E+00  0.00000000E+00  0.00000000E+00
Num ILSW                                   I              100
ILSW                                       I   N=         100
           1           0           0           0           2           0
           0           0           0           0        1009          -1
           5           0           0           0           0           0
           0           0           0           0           0           0
           1           0           0           0           0           0
           0           0      100000           0          -1           0
           0           0           0           0           0           0
           0           0           0           1           0           0
           0 -2000000000           1           0           0           0
           0           1           4          52           0           0
           0           0          13           0           0           0
           0           0           0           1           0           1
           0           0           0           0           0           0
           0           0           0           0           0           0
           0           0           0           0           0           0
           0           0           0           0           0           0
           0           0           0           0
Num RLSW                                   I               52
RLSW                                       R   N=          52
  7.50000000E-01  7.50000000E-01  1.00000000E+00  1.00000000E+00  2.50000000E-01
  0.00000000E+00  0.00000000E+00  1.00000000E+00  0.00000000E+00  0.00000000E+00
  0.00000000E+00  0.00000000E+00  1.00000000E+00  0.00000000E+00  0.00000000E+00
  0.00000000E+00  0.00000000E+00  1.00000000E+00  0.00000000E+00  0.00000000E+00
  0.00000000E+00  0.00000000E+00  1.00000000E+00  0.00000000E+00  0.00000000E+00
  0.00000000E+00  0.00000000E+00  1.00000000E+00  0.00000000E+00  0.00000000E+00
  0.00000000E+00  0.00000000E+00  1.00000000E+00  0.00000000E+00  0.00000000E+00
  0.00000000E+00  0.00000000E+00  0.00000000E+00  1.00000000E+00  1.00000000E+00
  0.00000000E+00  1.00000000E+00  0.00000000E+00  0.00000000E+00  0.00000000E+00
  0.00000000E+00  0.00000000E+00  0.00000000E+00  0.00000000E+00  0.00000000E+00
  0.00000000E+00  0.00000000E+00
MxBond                                     I                1
NBond                                      I   N=           1
           0
IBond                                      I   N=           1
           0
RBond                                      R   N=           1
  0.00000000E+00
Virial Ratio                               R      2.001510606542064E+00
SCF Energy                                 R     -5.290062316670556E+01
Total Energy                               R     -5.290062316670556E+01
S**2                                       R      7.516082558363113E-01
S**2 after annihilation                    R      7.500000008170871E-01
RMS Density                                R      7.090563514991569E-09
Job Status                                 I                1
Nuclear derivative order                   I                0
External E-field                           R   N=          35
  0.00000000E+00  0.00000000E+00  0.00000000E+00  0.00000000E+00  0.00000000E+00
  0.00000000E+00  0.00000000E+00  0.00000000E+00  0.00000000E+00  0.00000000E+00
  0.00000000E+00  0.00000000E+00  0.00000000E+00  0.00000000E+00  0.00000000E+00
  0.00000000E+00  0.00000000E+00  0.00000000E+00  0.00000000E+00  0.00000000E+00
  0.00000000E+00  0.00000000E+00  0.00000000E+00  0.00000000E+00  0.00000000E+00
  0.00000000E+00  0.00000000E+00  0.00000000E+00  0.00000000E+00  0.00000000E+00
  0.00000000E+00  0.00000000E+00  0.00000000E+00  0.00000000E+00  0.00000000E+00
IOpCl                                      I                1
IROHF                                      I                0
Alpha Orbital Energies                     R   N=          22
 -1.59657614E+01 -1.91738628E+00 -1.51543488E+00 -1.30491432E+00 -1.30491432E+00
 -4.65457436E-01 -3.77275474E-01 -3.68215177E-01 -3.68215177E-01  1.78926430E-02
  3.04813584E-02  3.04813584E-02  1.15316251E-01  8.01212084E-01  8.01212084E-01
  8.08596810E-01  8.28200172E-01  8.28200196E-01  2.53098366E+00  2.56939760E+00
  2.56939760E+00  3.37584735E+01
Beta Orbital Energies                      R   N=          22
 -1.59353506E+01 -1.82608593E+00 -1.27570362E+00 -1.27570362E+00 -1.18297517E+00
 -4.49894319E-01 -3.61288093E-01 -3.61288093E-01 -3.45838835E-01  3.93247756E-02
  3.93247756E-02  6.74754218E-02  1.42761119E-01  8.38128984E-01  8.38128986E-01
  9.01980838E-01  9.01980838E-01  9.22121219E-01  2.58763580E+00  2.58763580E+00
  2.65988082E+00  3.37832406E+01
Alpha MO coefficients                      R   N=         484
  5.57568278E-01  4.67085336E-01  0.00000000E+00  0.00000000E+00  0.00000000E+00
  9.75214378E-03  0.00000000E+00  0.00000000E+00  0.00000000E+00 -4.60729056E-03
  0.00000000E+00  0.00000000E+00  0.00000000E+00  1.61643467E-03  0.00000000E+00
  0.00000000E+00  0.00000000E+00  5.85221272E-04  0.00000000E+00  0.00000000E+00
  4.52350723E-16  0.00000000E+00 -1.47803436E-01 -2.39578687E-01  0.00000000E+00
  0.00000000E+00  0.00000000E+00  8.27907683E-01  0.00000000E+00  0.00000000E+00
  0.00000000E+00  3.12822304E-01  0.00000000E+00  0.00000000E+00  0.00000000E+00
 -3.11707811E-02  0.00000000E+00  0.00000000E+00  0.00000000E+00  1.22058968E-02
  0.00000000E+00  0.00000000E+00  3.43607408E-16  0.00000000E+00  0.00000000E+00
  0.00000000E+00  0.00000000E+00  0.00000000E+00  4.07911930E-01  0.00000000E+00
  0.00000000E+00  0.00000000E+00  5.79205204E-01  0.00000000E+00  0.00000000E+00
  0.00000000E+00  1.94381846E-01  0.00000000E+00  0.00000000E+00  0.00000000E+00
 -1.87624801E-02  0.00000000E+00  0.00000000E+00  0.00000000E+00  0.00000000E+00
  0.00000000E+00  0.00000000E+00  0.00000000E+00  0.00000000E+00  3.82577947E-01
  0.00000000E+00  0.00000000E+00  0.00000000E+00  5.70790929E-01  0.00000000E+00
  0.00000000E+00  0.00000000E+00  2.38099319E-01  0.00000000E+00  0.00000000E+00
  0.00000000E+00 -2.03553939E-02  0.00000000E+00  0.00000000E+00  0.00000000E+00
  0.00000000E+00  0.00000000E+00  0.00000000E+00  0.00000000E+00  0.00000000E+00
  3.82577947E-01  0.00000000E+00  0.00000000E+00  0.00000000E+00  5.70790929E-01
  0.00000000E+00  0.00000000E+00  0.00000000E+00  2.38099319E-01  0.00000000E+00
  0.00000000E+00  0.00000000E+00 -2.03553939E-02  0.00000000E+00  0.00000000E+00
  0.00000000E+00  0.00000000E+00  0.00000000E+00  0.00000000E+00  0.00000000E+00
  5.70574674E-02  1.01748037E-01  0.00000000E+00  0.00000000E+00  0.00000000E+00
 -5.71491007E-01  0.00000000E+00  0.00000000E+00  0.00000000E+00 -1.22624777E-01
  0.00000000E+00  0.00000000E+00  0.00000000E+00  1.16590097E+00  0.00000000E+00
  0.00000000E+00  0.00000000E+00 -3.90481114E-03  0.00000000E+00  0.00000000E+00
 -1.23180914E-16  0.00000000E+00  0.00000000E+00  0.00000000E+00  0.00000000E+00
  0.00000000E+00 -1.67659619E-01  0.00000000E+00  0.00000000E+00  0.00000000E+00
 -2.81014657E-01  0.00000000E+00  0.00000000E+00  0.00000000E+00  2.76696310E-01
  0.00000000E+00  0.00000000E+00  0.00000000E+00  8.31255398E-01  0.00000000E+00
  0.00000000E+00  0.00000000E+00  0.00000000E+00  0.00000000E+00  0.00000000E+00
  0.00000000E+00 -1.68106866E-01  0.00000000E+00  0.00000000E+00  0.00000000E+00
 -2.92856283E-01  0.00000000E+00  0.00000000E+00  0.00000000E+00  2.34895957E-01
  0.00000000E+00  0.00000000E+00  0.00000000E+00  8.57795712E-01  0.00000000E+00
  0.00000000E+00  0.00000000E+00  0.00000000E+00  0.00000000E+00  0.00000000E+00
  0.00000000E+00  0.00000000E+00  0.00000000E+00  0.00000000E+00 -1.68106866E-01
  0.00000000E+00  0.00000000E+00  0.00000000E+00 -2.92856283E-01  0.00000000E+00
  0.00000000E+00  0.00000000E+00  2.34895957E-01  0.00000000E+00  0.00000000E+00
  0.00000000E+00  8.57795712E-01  0.00000000E+00  0.00000000E+00  0.00000000E+00
  0.00000000E+00  0.00000000E+00  0.00000000E+00  0.00000000E+00  0.00000000E+00
  0.00000000E+00  0.00000000E+00 -2.40997094E-01  0.00000000E+00  0.00000000E+00
  0.00000000E+00 -5.75045575E-01  0.00000000E+00  0.00000000E+00  0.00000000E+00
  1.65581985E+00  0.00000000E+00  0.00000000E+00  0.00000000E+00 -1.16368730E+00
  0.00000000E+00  0.00000000E+00  0.00000000E+00  0.00000000E+00  0.00000000E+00
  0.00000000E+00  0.00000000E+00 -2.45541146E-01  0.00000000E+00  0.00000000E+00
  0.00000000E+00 -6.11214851E-01  0.00000000E+00  0.00000000E+00  0.00000000E+00
  1.66404789E+00  0.00000000E+00  0.00000000E+00  0.00000000E+00 -1.14585734E+00
  0.00000000E+00  0.00000000E+00  0.00000000E+00  0.00000000E+00  0.00000000E+00
  0.00000000E+00  0.00000000E+00  0.00000000E+00  0.00000000E+00  0.00000000E+00
 -2.45541146E-01  0.00000000E+00  0.00000000E+00  0.00000000E+00 -6.11214851E-01
  0.00000000E+00  0.00000000E+00  0.00000000E+00  1.66404789E+00  0.00000000E+00
  0.00000000E+00  0.00000000E+00 -1.14585734E+00  0.00000000E+00  0.00000000E+00
  0.00000000E+00  0.00000000E+00  0.00000000E+00  0.00000000E+00  1.02254732E-01
  2.02257611E-01  0.00000000E+00  0.00000000E+00  0.00000000E+00 -1.67900853E+00
  0.00000000E+00  0.00000000E+00  0.00000000E+00  2.69326952E+00  0.00000000E+00
  0.00000000E+00  0.00000000E+00 -1.47732441E+00  0.00000000E+00  0.00000000E+00
  0.00000000E+00 -9.80492789E-03  0.00000000E+00  0.00000000E+00 -4.25584044E-16
  0.00000000E+00  0.00000000E+00  0.00000000E+00  0.00000000E+00  0.00000000E+00
  0.00000000E+00  0.00000000E+00  0.00000000E+00  0.00000000E+00  0.00000000E+00
  0.00000000E+00  0.00000000E+00  0.00000000E+00  0.00000000E+00  0.00000000E+00
  0.00000000E+00  0.00000000E+00  0.00000000E+00  0.00000000E+00  1.00000000E+00
  0.00000000E+00  0.00000000E+00  0.00000000E+00  0.00000000E+00  0.00000000E+00
  0.00000000E+00  0.00000000E+00  0.00000000E+00  0.00000000E+00  0.00000000E+00
  0.00000000E+00  0.00000000E+00  0.00000000E+00  0.00000000E+00  0.00000000E+00
  0.00000000E+00  0.00000000E+00  0.00000000E+00  0.00000000E+00  0.00000000E+00
  0.00000000E+00  0.00000000E+00  1.00000000E+00  0.00000000E+00  0.00000000E+00
  2.66611706E-03  5.07134182E-03  0.00000000E+00  0.00000000E+00  0.00000000E+00
 -2.88146860E-02  0.00000000E+00  0.00000000E+00  0.00000000E+00  2.21207151E-02
  0.00000000E+00  0.00000000E+00  0.00000000E+00 -9.55602670E-03  0.00000000E+00
  0.00000000E+00  0.00000000E+00  9.99869636E-01  0.00000000E+00  0.00000000E+00
 -2.52276562E-14  0.00000000E+00  2.59801161E-16  4.15089353E-16  0.00000000E+00
  0.00000000E+00  0.00000000E+00 -2.42937063E-15  0.00000000E+00  0.00000000E+00
  0.00000000E+00  2.96788591E-15  0.00000000E+00  0.00000000E+00  0.00000000E+00
 -1.33578958E-15  0.00000000E+00  0.00000000E+00  0.00000000E+00  2.53875666E-14
  0.00000000E+00  0.00000000E+00  1.00000000E+00  0.00000000E+00  0.00000000E+00
  0.00000000E+00  0.00000000E+00  0.00000000E+00  0.00000000E+00  0.00000000E+00
  0.00000000E+00  0.00000000E+00  0.00000000E+00  0.00000000E+00  0.00000000E+00
  0.00000000E+00  0.00000000E+00  0.00000000E+00  0.00000000E+00  0.00000000E+00
  0.00000000E+00  0.00000000E+00  0.00000000E+00  0.00000000E+00  0.00000000E+00
  1.00000000E+00  0.00000000E+00  0.00000000E+00  0.00000000E+00  0.00000000E+00
 -1.26374254E+00  0.00000000E+00  0.00000000E+00  0.00000000E+00  1.63103568E+00
  0.00000000E+00  0.00000000E+00  0.00000000E+00 -9.89269213E-01  0.00000000E+00
  0.00000000E+00  0.00000000E+00  3.61196774E-01  0.00000000E+00  0.00000000E+00
  0.00000000E+00  0.00000000E+00  0.00000000E+00  0.00000000E+00  0.00000000E+00
  0.00000000E+00 -1.27071257E+00  0.00000000E+00  0.00000000E+00  0.00000000E+00
  1.61871926E+00  0.00000000E+00  0.00000000E+00  0.00000000E+00 -9.76634702E-01
  0.00000000E+00  0.00000000E+00  0.00000000E+00  3.56022390E-01  0.00000000E+00
  0.00000000E+00  0.00000000E+00  0.00000000E+00  0.00000000E+00  0.00000000E+00
  0.00000000E+00  0.00000000E+00 -1.27071257E+00  0.00000000E+00  0.00000000E+00
  0.00000000E+00  1.61871926E+00  0.00000000E+00  0.00000000E+00  0.00000000E+00
 -9.76634702E-01  0.00000000E+00  0.00000000E+00  0.00000000E+00  3.56022390E-01
  0.00000000E+00  0.00000000E+00  0.00000000E+00  0.00000000E+00  0.00000000E+00
  0.00000000E+00  0.00000000E+00 -2.14410062E+00  2.25450989E+00  0.00000000E+00
  0.00000000E+00  0.00000000E+00 -3.29316996E-01  0.00000000E+00  0.00000000E+00
  0.00000000E+00  2.82329634E-01  0.00000000E+00  0.00000000E+00  0.00000000E+00
 -1.06975980E-01  0.00000000E+00  0.00000000E+00  0.00000000E+00 -1.74441835E-05
  0.00000000E+00  0.00000000E+00 -1.18975689E-18  0.00000000E+00
Beta MO coefficients                       R   N=         484
  5.58620386E-01  4.66742079E-01  0.00000000E+00  0.00000000E+00  0.00000000E+00
  7.58398677E-03  0.00000000E+00  0.00000000E+00  0.00000000E+00 -3.59527134E-03
  0.00000000E+00  0.00000000E+00  0.00000000E+00  1.25309827E-03  0.00000000E+00
  0.00000000E+00  0.00000000E+00 -4.36359533E-04  0.00000000E+00  0.00000000E+00
  1.63402340E-16  0.00000000E+00 -1.45867800E-01 -2.35171410E-01  0.00000000E+00
  0.00000000E+00  0.00000000E+00  8.04318670E-01  0.00000000E+00  0.00000000E+00
  0.00000000E+00  3.38361801E-01  0.00000000E+00  0.00000000E+00  0.00000000E+00
 -3.28769509E-02  0.00000000E+00  0.00000000E+00  0.00000000E+00 -2.49508570E-02
  0.00000000E+00  0.00000000E+00  1.11819386E-16  0.00000000E+00  0.00000000E+00
  0.00000000E+00  0.00000000E+00  3.81303272E-01  0.00000000E+00  0.00000000E+00
  0.00000000E+00  5.66305887E-01  0.00000000E+00  0.00000000E+00  0.00000000E+00
  2.46032457E-01  0.00000000E+00  0.00000000E+00  0.00000000E+00 -2.05437805E-02
  0.00000000E+00  0.00000000E+00  0.00000000E+00  0.00000000E+00  0.00000000E+00
  0.00000000E+00  0.00000000E+00  0.00000000E+00  3.81303272E-01  0.00000000E+00
  0.00000000E+00  0.00000000E+00  5.66305887E-01  0.00000000E+00  0.00000000E+00
  0.00000000E+00  2.46032457E-01  0.00000000E+00  0.00000000E+00  0.00000000E+00
 -2.05437805E-02  0.00000000E+00  0.00000000E+00  0.00000000E+00  0.00000000E+00
  0.00000000E+00  0.00000000E+00  0.00000000E+00  0.00000000E+00  0.00000000E+00
  0.00000000E+00  0.00000000E+00  3.73479295E-01  0.00000000E+00  0.00000000E+00
  0.00000000E+00  5.49827985E-01  0.00000000E+00  0.00000000E+00  0.00000000E+00
  2.77826564E-01  0.00000000E+00  0.00000000E+00  0.00000000E+00 -2.04683285E-02
  0.00000000E+00  0.00000000E+00  0.00000000E+00  0.00000000E+00  0.00000000E+00
  5.62636822E-02  9.94674372E-02  0.00000000E+00  0.00000000E+00  0.00000000E+00
 -5.42468284E-01  0.00000000E+00  0.00000000E+00  0.00000000E+00 -1.86673625E-01
  0.00000000E+00  0.00000000E+00  0.00000000E+00  1.19914004E+00  0.00000000E+00
  0.00000000E+00  0.00000000E+00  7.09086666E-03  0.00000000E+00  0.00000000E+00
  2.19549848E-16  0.00000000E+00  0.00000000E+00  0.00000000E+00 -1.66633819E-01
  0.00000000E+00  0.00000000E+00  0.00000000E+00 -2.88964929E-01  0.00000000E+00
  0.00000000E+00  0.00000000E+00  2.14181081E-01  0.00000000E+00  0.00000000E+00
  0.00000000E+00  8.71366857E-01  0.00000000E+00  0.00000000E+00  0.00000000E+00
  0.00000000E+00  0.00000000E+00  0.00000000E+00  0.00000000E+00  0.00000000E+00
  0.00000000E+00  0.00000000E+00 -1.66633819E-01  0.00000000E+00  0.00000000E+00
  0.00000000E+00 -2.88964929E-01  0.00000000E+00  0.00000000E+00  0.00000000E+00
  2.14181081E-01  0.00000000E+00  0.00000000E+00  0.00000000E+00  8.71366857E-01
  0.00000000E+00  0.00000000E+00  0.00000000E+00  0.00000000E+00  0.00000000E+00
  0.00000000E+00  0.00000000E+00  0.00000000E+00  0.00000000E+00  0.00000000E+00
 -1.61593561E-01  0.00000000E+00  0.00000000E+00  0.00000000E+00 -2.78616294E-01
  0.00000000E+00  0.00000000E+00  0.00000000E+00  1.42964927E-01  0.00000000E+00
  0.00000000E+00  0.00000000E+00  9.16429354E-01  0.00000000E+00  0.00000000E+00
  0.00000000E+00  0.00000000E+00  0.00000000E+00  0.00000000E+00  0.00000000E+00
  0.00000000E+00 -2.46973675E-01  0.00000000E+00  0.00000000E+00  0.00000000E+00
 -6.19456616E-01  0.00000000E+00  0.00000000E+00  0.00000000E+00  1.66735125E+00
  0.00000000E+00  0.00000000E+00  0.00000000E+00 -1.13604357E+00  0.00000000E+00
  0.00000000E+00  0.00000000E+00  0.00000000E+00  0.00000000E+00  0.00000000E+00
  0.00000000E+00  0.00000000E+00 -2.46973675E-01  0.00000000E+00  0.00000000E+00
  0.00000000E+00 -6.19456616E-01  0.00000000E+00  0.00000000E+00  0.00000000E+00
  1.66735125E+00  0.00000000E+00  0.00000000E+00  0.00000000E+00 -1.13604357E+00
  0.00000000E+00  0.00000000E+00  0.00000000E+00  0.00000000E+00  0.00000000E+00
  0.00000000E+00  0.00000000E+00  0.00000000E+00  0.00000000E+00  0.00000000E+00
  0.00000000E+00 -2.51492215E-01  0.00000000E+00  0.00000000E+00  0.00000000E+00
 -6.51166204E-01  0.00000000E+00  0.00000000E+00  0.00000000E+00  1.67665874E+00
  0.00000000E+00  0.00000000E+00  0.00000000E+00 -1.10175566E+00  0.00000000E+00
  0.00000000E+00  0.00000000E+00  0.00000000E+00  0.00000000E+00  1.04765490E-01
  2.06508879E-01  0.00000000E+00  0.00000000E+00  0.00000000E+00 -1.69967645E+00
  0.00000000E+00  0.00000000E+00  0.00000000E+00  2.68653059E+00  0.00000000E+00
  0.00000000E+00  0.00000000E+00 -1.45045980E+00  0.00000000E+00  0.00000000E+00
  0.00000000E+00  9.95697609E-03  0.00000000E+00  0.00000000E+00  2.73280205E-15
  0.00000000E+00  0.00000000E+00  0.00000000E+00  0.00000000E+00  0.00000000E+00
  0.00000000E+00  0.00000000E+00  0.00000000E+00  0.00000000E+00  0.00000000E+00
  0.00000000E+00  0.00000000E+00  0.00000000E+00  0.00000000E+00  0.00000000E+00
  0.00000000E+00  0.00000000E+00  0.00000000E+00  0.00000000E+00  0.00000000E+00
  0.00000000E+00  0.00000000E+00  1.00000000E+00 -2.66080988E-16 -5.65517026E-16
  0.00000000E+00  0.00000000E+00  0.00000000E+00  4.72902138E-15  0.00000000E+00
  0.00000000E+00  0.00000000E+00 -6.77673405E-15  0.00000000E+00  0.00000000E+00
  0.00000000E+00  3.20771448E-15  0.00000000E+00  0.00000000E+00  0.00000000E+00
  2.62032589E-15  0.00000000E+00  0.00000000E+00  1.00000000E+00  0.00000000E+00
  0.00000000E+00  0.00000000E+00  0.00000000E+00  0.00000000E+00  0.00000000E+00
  0.00000000E+00  0.00000000E+00  0.00000000E+00  0.00000000E+00  0.00000000E+00
  0.00000000E+00  0.00000000E+00  0.00000000E+00  0.00000000E+00  0.00000000E+00
  0.00000000E+00  0.00000000E+00  0.00000000E+00  1.00000000E+00  0.00000000E+00
  0.00000000E+00  0.00000000E+00  0.00000000E+00  0.00000000E+00  0.00000000E+00
  0.00000000E+00  0.00000000E+00  0.00000000E+00  0.00000000E+00  0.00000000E+00
  0.00000000E+00  0.00000000E+00  0.00000000E+00  0.00000000E+00  0.00000000E+00
  0.00000000E+00  0.00000000E+00  0.00000000E+00  0.00000000E+00  0.00000000E+00
  0.00000000E+00  1.00000000E+00  0.00000000E+00  0.00000000E+00 -5.59356607E-03
 -7.63601165E-03  0.00000000E+00  0.00000000E+00  0.00000000E+00  4.07418304E-02
  0.00000000E+00  0.00000000E+00  0.00000000E+00 -1.68924688E-02  0.00000000E+00
  0.00000000E+00  0.00000000E+00  5.08385440E-03  0.00000000E+00  0.00000000E+00
  0.00000000E+00  9.99613785E-01  0.00000000E+00  0.00000000E+00 -2.70202520E-15
  0.00000000E+00  0.00000000E+00  0.00000000E+00 -1.27101207E+00  0.00000000E+00
  0.00000000E+00  0.00000000E+00  1.61786066E+00  0.00000000E+00  0.00000000E+00
  0.00000000E+00 -9.73792789E-01  0.00000000E+00  0.00000000E+00  0.00000000E+00
  3.54501852E-01  0.00000000E+00  0.00000000E+00  0.00000000E+00  0.00000000E+00
  0.00000000E+00  0.00000000E+00  0.00000000E+00  0.00000000E+00  0.00000000E+00
  0.00000000E+00 -1.27101207E+00  0.00000000E+00  0.00000000E+00  0.00000000E+00
  1.61786066E+00  0.00000000E+00  0.00000000E+00  0.00000000E+00 -9.73792789E-01
  0.00000000E+00  0.00000000E+00  0.00000000E+00  3.54501852E-01  0.00000000E+00
  0.00000000E+00  0.00000000E+00  0.00000000E+00  0.00000000E+00  0.00000000E+00
  0.00000000E+00  0.00000000E+00  0.00000000E+00  0.00000000E+00 -1.27309823E+00
  0.00000000E+00  0.00000000E+00  0.00000000E+00  1.61290032E+00  0.00000000E+00
  0.00000000E+00  0.00000000E+00 -9.62251010E-01  0.00000000E+00  0.00000000E+00
  0.00000000E+00  3.49058114E-01  0.00000000E+00  0.00000000E+00  0.00000000E+00
  0.00000000E+00  0.00000000E+00 -2.14385344E+00  2.25475415E+00  0.00000000E+00
  0.00000000E+00  0.00000000E+00 -3.29636181E-01  0.00000000E+00  0.00000000E+00
  0.00000000E+00  2.82374303E-01  0.00000000E+00  0.00000000E+00  0.00000000E+00
 -1.06972329E-01  0.00000000E+00  0.00000000E+00  0.00000000E+00 -3.51485181E-04
  0.00000000E+00  0.00000000E+00  4.47529117E-19  0.00000000E+00
Orthonormal basis                          R   N=         484
  2.37258796E-01  2.48792276E-01  0.00000000E+00  0.00000000E+00  0.00000000E+00
  3.14136421E-01  0.00000000E+00  0.00000000E+00  0.00000000E+00  3.10357360E-01
  0.00000000E+00  0.00000000E+00  0.00000000E+00  2.47131997E-01  0.00000000E+00
  0.00000000E+00  0.00000000E+00 -2.08603220E-17  0.00000000E+00  0.00000000E+00
  0.00000000E+00  0.00000000E+00  4.42543018E-01  4.32319358E-01  0.00000000E+00
  0.00000000E+00  0.00000000E+00 -9.06604449E-02  0.00000000E+00  0.00000000E+00
  0.00000000E+00 -3.14228116E-01  0.00000000E+00  0.00000000E+00  0.00000000E+00
 -3.50226540E-01  0.00000000E+00  0.00000000E+00  0.00000000E+00  1.59340170E-17
  0.00000000E+00  0.00000000E+00  0.00000000E+00  0.00000000E+00  0.00000000E+00
  0.00000000E+00  0.00000000E+00  0.00000000E+00  0.00000000E+00  0.00000000E+00
  0.00000000E+00  0.00000000E+00  0.00000000E+00  0.00000000E+00  0.00000000E+00
  0.00000000E+00  0.00000000E+00  0.00000000E+00  0.00000000E+00  0.00000000E+00
  0.00000000E+00  0.00000000E+00  0.00000000E+00  0.00000000E+00  1.00000000E+00
  0.00000000E+00  3.26663306E-17  2.90298169E-17  0.00000000E+00  0.00000000E+00
  0.00000000E+00 -1.18639685E-16  0.00000000E+00  0.00000000E+00  0.00000000E+00
  5.66571983E-17  0.00000000E+00  0.00000000E+00  0.00000000E+00  1.00249567E-16
  0.00000000E+00  0.00000000E+00  0.00000000E+00  1.00000000E+00  0.00000000E+00
  0.00000000E+00  0.00000000E+00  0.00000000E+00 -3.08427338E-01 -1.57173734E-01
  0.00000000E+00  0.00000000E+00  0.00000000E+00  9.94219717E-01  0.00000000E+00
  0.00000000E+00  0.00000000E+00  8.82862496E-02  0.00000000E+00  0.00000000E+00
  0.00000000E+00 -9.20318709E-01  0.00000000E+00  0.00000000E+00  0.00000000E+00
  2.17796360E-16  0.00000000E+00  0.00000000E+00  0.00000000E+00  0.00000000E+00
  1.96171304E+00 -1.92434664E+00  0.00000000E+00  0.00000000E+00  0.00000000E+00
 -3.88719623E-01  0.00000000E+00  0.00000000E+00  0.00000000E+00  9.59313419E-01
  0.00000000E+00  0.00000000E+00  0.00000000E+00 -6.56693937E-01  0.00000000E+00
  0.00000000E+00  0.00000000E+00 -4.85145826E-17  0.00000000E+00  0.00000000E+00
  0.00000000E+00  0.00000000E+00 -8.64888929E-01  1.19710353E+00  0.00000000E+00
  0.00000000E+00  0.00000000E+00 -1.64134123E+00  0.00000000E+00  0.00000000E+00
  0.00000000E+00  2.51469247E+00  0.00000000E+00  0.00000000E+00  0.00000000E+00
 -1.44649769E+00  0.00000000E+00  0.00000000E+00  0.00000000E+00 -1.97272031E-16
  0.00000000E+00  0.00000000E+00  0.00000000E+00  0.00000000E+00  0.00000000E+00
  0.00000000E+00  0.00000000E+00  0.00000000E+00  0.00000000E+00  0.00000000E+00
  0.00000000E+00  0.00000000E+00  0.00000000E+00  0.00000000E+00  0.00000000E+00
  0.00000000E+00  0.00000000E+00  0.00000000E+00  0.00000000E+00  0.00000000E+00
  0.00000000E+00  0.00000000E+00  0.00000000E+00  0.00000000E+00  0.00000000E+00
  1.00000000E+00  0.00000000E+00  0.00000000E+00  0.00000000E+00  0.00000000E+00
  0.00000000E+00  0.00000000E+00  0.00000000E+00  0.00000000E+00  0.00000000E+00
  0.00000000E+00  0.00000000E+00  0.00000000E+00  0.00000000E+00  0.00000000E+00
  0.00000000E+00  0.00000000E+00  0.00000000E+00  0.00000000E+00  1.00000000E+00
  0.00000000E+00  0.00000000E+00  0.00000000E+00  0.00000000E+00  0.00000000E+00
  0.00000000E+00  0.00000000E+00  0.00000000E+00  0.00000000E+00  0.00000000E+00
  0.00000000E+00  0.00000000E+00  0.00000000E+00  0.00000000E+00  0.00000000E+00
  0.00000000E+00  0.00000000E+00  0.00000000E+00  0.00000000E+00  0.00000000E+00
  0.00000000E+00  0.00000000E+00  1.00000000E+00  0.00000000E+00  0.00000000E+00
  0.00000000E+00  0.00000000E+00  0.00000000E+00  0.00000000E+00  2.60374247E-01
  0.00000000E+00  0.00000000E+00  0.00000000E+00  3.75569254E-01  0.00000000E+00
  0.00000000E+00  0.00000000E+00  3.86371087E-01  0.00000000E+00  0.00000000E+00
  0.00000000E+00  2.87220663E-01  0.00000000E+00  0.00000000E+00  0.00000000E+00
  0.00000000E+00  0.00000000E+00  0.00000000E+00  0.00000000E+00  0.00000000E+00
  0.00000000E+00  6.01123738E-01  0.00000000E+00  0.00000000E+00  0.00000000E+00
  3.13723242E-01  0.00000000E+00  0.00000000E+00  0.00000000E+00 -2.96391563E-01