fubar                                                                   
SP        UPBE1PBE                                                    6-311+G(d,p)        
Number of atoms                            I                1
Info1-9                                    I   N=           9
          11          10           0           0           0         110
           1          18       -1302
Full Title                                 C   N=           1
fubar       
Route                                      C   N=           3
#PBE1PBE/6-311+G(d,p) scf=tight     
Charge                                     I               -1
Multiplicity                               I                2
Number of electrons                        I               17
Number of alpha electrons                  I                9
Number of beta electrons                   I                8
Number of basis functions                  I               30
Number of independent functions            I               30
Number of point charges in /Mol/           I                0
Number of translation vectors              I                0
Atomic numbers                             I   N=           1
          16
Nuclear charges                            R   N=           1
  1.60000000E+01
Current cartesian coordinates              R   N=           3
  0.00000000E+00  0.00000000E+00  0.00000000E+00
Number of symbols in /Mol/                 I                0
Int Atom Types                             I   N=           1
           0
Force Field                                I                0
Atom Types                                 C   N=           1
            
MM charges                                 R   N=           1
  0.00000000E+00
Integer atomic weights                     I   N=           1
          32
Real atomic weights                        R   N=           1
  3.19720718E+01
Atom fragment info                         I   N=           1
           0
Atom residue num                           I   N=           1
           0
Nuclear spins                              I   N=           1
           0
Nuclear ZEff                               R   N=           1
 -1.36000000E+01
Nuclear ZNuc                               R   N=           1
  1.60000000E+01
Nuclear QMom                               R   N=           1
  0.00000000E+00
Nuclear GFac                               R   N=           1
  0.00000000E+00
MicOpt                                     I   N=           1
          -1
Number of residues                         I                0
Number of secondary structures             I                0
SymInf integers                            I   N=          26
           1           8           1           1           1           1
          -1          -1          -1           1          -1          -1
          -1           1          -1          -1          -1          -1
           1           1           1          -1           1           1
           1          -1
RotTr to input orientation                 R   N=          12
  0.00000000E+00  0.00000000E+00 -1.00000000E+00  0.00000000E+00  1.00000000E+00
  0.00000000E+00  1.00000000E+00  0.00000000E+00  0.00000000E+00  0.00000000E+00
  0.00000000E+00  0.00000000E+00
Number of contracted shells                I               13
Number of primitive shells                 I               24
Pure/Cartesian d shells                    I                0
Pure/Cartesian f shells                    I                0
Highest angular momentum                   I                2
Largest degree of contraction              I                6
Shell types                                I   N=          13
           0           0           0           0           0           0
          -1           1           1           1           1           1
          -2
Number of primitives per shell             I   N=          13
           6           3           1           1           1           1
           1           4           2           1           1           1
           1
Shell to atom map                          I   N=          13
           1           1           1           1           1           1
           1           1           1           1           1           1
           1
Primitive exponents                        R   N=          24
  9.34134000E+04  1.39617000E+04  3.16991000E+03  9.02456000E+02  2.97158000E+02
  1.08702000E+02  1.08702000E+02  4.31553000E+01  1.81079000E+01  5.56009000E+00
  2.13183000E+00  4.20403000E-01  1.36045000E-01  4.05000000E-02  4.95040000E+02
  1.17221000E+02  3.77749000E+01  1.40584000E+01  5.56574000E+00  2.26297000E+00
  8.07994000E-01  2.77460000E-01  7.71410000E-02  6.50000000E-01
Contraction coefficients                   R   N=          24
  7.42999957E-04  5.79299966E-03  2.99539983E-02  1.19027993E-01  3.68431979E-01
  5.77298966E-01  1.43186060E-01  6.24465262E-01  2.83366119E-01  1.00000000E+00
  1.00000000E+00  1.00000000E+00  1.00000000E+00  1.00000000E+00  8.30900251E-03
  6.40240194E-02  2.77614084E-01  7.45076225E-01  6.13711672E-01  4.43817763E-01
  1.00000000E+00  1.00000000E+00  1.00000000E+00  1.00000000E+00
P(S=P) Contraction coefficients            R   N=          24
  0.00000000E+00  0.00000000E+00  0.00000000E+00  0.00000000E+00  0.00000000E+00
  0.00000000E+00  0.00000000E+00  0.00000000E+00  0.00000000E+00  0.00000000E+00
  0.00000000E+00  0.00000000E+00  0.00000000E+00  1.00000000E+00  0.00000000E+00
  0.00000000E+00  0.00000000E+00  0.00000000E+00  0.00000000E+00  0.00000000E+00
  0.00000000E+00  0.00000000E+00  0.00000000E+00  0.00000000E+00
Coordinates of each shell                  R   N=          39
  0.00000000E+00  0.00000000E+00  0.00000000E+00  0.00000000E+00  0.00000000E+00
  0.00000000E+00  0.00000000E+00  0.00000000E+00  0.00000000E+00  0.00000000E+00
  0.00000000E+00  0.00000000E+00  0.00000000E+00  0.00000000E+00  0.00000000E+00
  0.00000000E+00  0.00000000E+00  0.00000000E+00  0.00000000E+00  0.00000000E+00
  0.00000000E+00  0.00000000E+00  0.00000000E+00  0.00000000E+00  0.00000000E+00
  0.00000000E+00  0.00000000E+00  0.00000000E+00  0.00000000E+00  0.00000000E+00
  0.00000000E+00  0.00000000E+00  0.00000000E+00  0.00000000E+00  0.00000000E+00
  0.00000000E+00  0.00000000E+00  0.00000000E+00  0.00000000E+00
Num ILSW                                   I              100
ILSW                                       I   N=         100
           1           0           0           0           2           0
           0           0           0           0        1009          -1
           5           0           0           0           0           0
           0           0           0           0           0           0
           1           0           0           0           0           0
           0           0      100000           0          -1           0
           0           0           0           0           0           0
           0           0           0           1           0           0
           0 -2000000000           1           0           0           0
           0           1           4          52           0           0
           0           0          13           0           0           0
           0           0           0           1           0           1
           0           0           0           0           0           0
           0           0           0           0           0           0
           0           0           0           0           0           0
           0           0           0           0           0           0
           0           0           0           0
Num RLSW                                   I               52
RLSW                                       R   N=          52
  7.50000000E-01  7.50000000E-01  1.00000000E+00  1.00000000E+00  2.50000000E-01
  0.00000000E+00  0.00000000E+00  1.00000000E+00  0.00000000E+00  0.00000000E+00
  0.00000000E+00  0.00000000E+00  1.00000000E+00  0.00000000E+00  0.00000000E+00
  0.00000000E+00  0.00000000E+00  1.00000000E+00  0.00000000E+00  0.00000000E+00
  0.00000000E+00  0.00000000E+00  1.00000000E+00  0.00000000E+00  0.00000000E+00
  0.00000000E+00  0.00000000E+00  1.00000000E+00  0.00000000E+00  0.00000000E+00
  0.00000000E+00  0.00000000E+00  1.00000000E+00  0.00000000E+00  0.00000000E+00
  0.00000000E+00  0.00000000E+00  0.00000000E+00  1.00000000E+00  1.00000000E+00
  0.00000000E+00  1.00000000E+00  0.00000000E+00  0.00000000E+00  0.00000000E+00
  0.00000000E+00  0.00000000E+00  0.00000000E+00  0.00000000E+00  0.00000000E+00
  0.00000000E+00  0.00000000E+00
MxBond                                     I                1
NBond                                      I   N=           1
           0
IBond                                      I   N=           1
           0
RBond                                      R   N=           1
  0.00000000E+00
Virial Ratio                               R      2.001224591166693E+00
SCF Energy                                 R     -3.980489212770769E+02
Total Energy                               R     -3.980489212770769E+02
S**2                                       R      7.529953219196841E-01
S**2 after annihilation                    R      7.500056353722813E-01
RMS Density                                R      1.941089173258220E-09
Job Status                                 I                1
Nuclear derivative order                   I                0
External E-field                           R   N=          35
  0.00000000E+00  0.00000000E+00  0.00000000E+00  0.00000000E+00  0.00000000E+00
  0.00000000E+00  0.00000000E+00  0.00000000E+00  0.00000000E+00  0.00000000E+00
  0.00000000E+00  0.00000000E+00  0.00000000E+00  0.00000000E+00  0.00000000E+00
  0.00000000E+00  0.00000000E+00  0.00000000E+00  0.00000000E+00  0.00000000E+00
  0.00000000E+00  0.00000000E+00  0.00000000E+00  0.00000000E+00  0.00000000E+00
  0.00000000E+00  0.00000000E+00  0.00000000E+00  0.00000000E+00  0.00000000E+00
  0.00000000E+00  0.00000000E+00  0.00000000E+00  0.00000000E+00  0.00000000E+00
IOpCl                                      I                1
IROHF                                      I                0
Alpha Orbital Energies                     R   N=          30
 -8.87491647E+01 -7.72934348E+00 -5.67586036E+00 -5.65850990E+00 -5.65850990E+00
 -4.16865457E-01 -5.31355135E-02 -7.07362769E-03 -7.07362769E-03  2.02478573E-01
  2.02810540E-01  2.09120125E-01  2.09120125E-01  5.28226885E-01  5.49476166E-01
  5.49476166E-01  8.22608464E-01  1.02633974E+00  1.03818286E+00  1.03818286E+00
  1.07796021E+00  1.07796021E+00  1.90534917E+00  1.94305418E+00  1.94305418E+00
  7.89842623E+00  1.76330657E+01  1.76524892E+01  1.76524892E+01  1.89223949E+02
Beta Orbital Energies                      R   N=          30
 -8.87438140E+01 -7.72426338E+00 -5.65790899E+00 -5.65536036E+00 -5.65536036E+00
 -3.66207800E-01  7.56502483E-03  7.56502483E-03  1.00049461E-01  2.08991113E-01
  2.10185257E-01  2.10185257E-01  2.17763808E-01  5.54635658E-01  5.54635658E-01
  5.63799926E-01  8.43125668E-01  1.08567108E+00  1.08567108E+00  1.09319334E+00
  1.09319334E+00  1.10425978E+00  1.95192012E+00  1.95192012E+00  1.95608878E+00
  7.90964314E+00  1.76568555E+01  1.76568658E+01  1.76568658E+01  1.89228648E+02
Alpha MO coefficients                      R   N=         900
  4.11059717E-01  6.54277037E-01  1.50330610E-02 -4.14046382E-03  1.36195695E-03
 -7.80591507E-04  2.41463546E-04  0.00000000E+00  0.00000000E+00  0.00000000E+00
  0.00000000E+00  0.00000000E+00  0.00000000E+00  0.00000000E+00  0.00000000E+00
  0.00000000E+00  0.00000000E+00  0.00000000E+00  0.00000000E+00  0.00000000E+00
  0.00000000E+00  0.00000000E+00  0.00000000E+00  0.00000000E+00  0.00000000E+00
 -1.43270377E-07  0.00000000E+00  0.00000000E+00 -2.48151572E-07  0.00000000E+00
 -1.19685925E-01 -3.21097625E-01  5.20448436E-01  5.92300365E-01  4.86514737E-02
 -1.72727424E-02  4.96704357E-03  0.00000000E+00  0.00000000E+00  0.00000000E+00
  0.00000000E+00  0.00000000E+00  0.00000000E+00  0.00000000E+00  0.00000000E+00
  0.00000000E+00  0.00000000E+00  0.00000000E+00  0.00000000E+00  0.00000000E+00
  0.00000000E+00  0.00000000E+00  0.00000000E+00  0.00000000E+00  0.00000000E+00
 -3.69697377E-04  0.00000000E+00  0.00000000E+00 -6.40334641E-04  0.00000000E+00
  0.00000000E+00  0.00000000E+00  0.00000000E+00  0.00000000E+00  0.00000000E+00
  0.00000000E+00  0.00000000E+00  0.00000000E+00 -1.86213847E-03  0.00000000E+00
  0.00000000E+00  3.77239512E-01  0.00000000E+00  0.00000000E+00  7.08825336E-01
  0.00000000E+00  0.00000000E+00  5.73861262E-02  0.00000000E+00  0.00000000E+00
 -6.28575799E-03  0.00000000E+00  0.00000000E+00  3.55188213E-03  0.00000000E+00
  0.00000000E+00  0.00000000E+00  0.00000000E+00  0.00000000E+00  0.00000000E+00
  0.00000000E+00  0.00000000E+00  0.00000000E+00  0.00000000E+00  0.00000000E+00
  0.00000000E+00  0.00000000E+00  0.00000000E+00  0.00000000E+00 -1.76826801E-03
  0.00000000E+00  0.00000000E+00  3.77497485E-01  0.00000000E+00  0.00000000E+00
  7.09258024E-01  0.00000000E+00  0.00000000E+00  5.60118939E-02  0.00000000E+00
  0.00000000E+00 -6.00961455E-03  0.00000000E+00  0.00000000E+00  3.37593184E-03
  0.00000000E+00  0.00000000E+00  0.00000000E+00  0.00000000E+00  0.00000000E+00
  0.00000000E+00  0.00000000E+00  0.00000000E+00  0.00000000E+00  0.00000000E+00
  0.00000000E+00  0.00000000E+00 -1.76826801E-03  0.00000000E+00  0.00000000E+00
  3.77497485E-01  0.00000000E+00  0.00000000E+00  7.09258024E-01  0.00000000E+00
  0.00000000E+00  5.60118939E-02  0.00000000E+00  0.00000000E+00 -6.00961455E-03
  0.00000000E+00  0.00000000E+00  3.37593184E-03  0.00000000E+00  0.00000000E+00
  0.00000000E+00  0.00000000E+00  0.00000000E+00  0.00000000E+00  0.00000000E+00
  3.58016185E-02  1.02126260E-01 -2.19235834E-01 -3.80713075E-01  6.78778203E-01
  5.14508706E-01  5.82244711E-03  0.00000000E+00  0.00000000E+00  0.00000000E+00
  0.00000000E+00  0.00000000E+00  0.00000000E+00  0.00000000E+00  0.00000000E+00
  0.00000000E+00  0.00000000E+00  0.00000000E+00  0.00000000E+00  0.00000000E+00
  0.00000000E+00  0.00000000E+00  0.00000000E+00  0.00000000E+00  0.00000000E+00
 -1.45735709E-02  0.00000000E+00  0.00000000E+00 -2.52421652E-02  0.00000000E+00
  0.00000000E+00  0.00000000E+00  0.00000000E+00  0.00000000E+00  0.00000000E+00
  0.00000000E+00  0.00000000E+00  0.00000000E+00  1.06447006E-02  0.00000000E+00
  0.00000000E+00 -9.96715808E-02  0.00000000E+00  0.00000000E+00 -1.90733055E-01
  0.00000000E+00  0.00000000E+00  2.65786322E-01  0.00000000E+00  0.00000000E+00
  5.83907083E-01  0.00000000E+00  0.00000000E+00  3.41635069E-01  0.00000000E+00
  0.00000000E+00  0.00000000E+00  0.00000000E+00  0.00000000E+00  0.00000000E+00
  0.00000000E+00  0.00000000E+00  0.00000000E+00  0.00000000E+00  0.00000000E+00
  0.00000000E+00  0.00000000E+00  6.31397034E-02  0.00000000E+00  0.00000000E+00
 -9.61370860E-02  0.00000000E+00  0.00000000E+00 -1.83060225E-01  0.00000000E+00
  0.00000000E+00  2.56399921E-01  0.00000000E+00  0.00000000E+00  5.50649765E-01
  0.00000000E+00  0.00000000E+00  3.50995779E-01  0.00000000E+00  0.00000000E+00
  0.00000000E+00  0.00000000E+00  0.00000000E+00  0.00000000E+00  0.00000000E+00
  0.00000000E+00  0.00000000E+00  0.00000000E+00  0.00000000E+00  0.00000000E+00
  0.00000000E+00  0.00000000E+00  0.00000000E+00  0.00000000E+00  6.31397034E-02
  0.00000000E+00  0.00000000E+00 -9.61370860E-02  0.00000000E+00  0.00000000E+00
 -1.83060225E-01  0.00000000E+00  0.00000000E+00  2.56399921E-01  0.00000000E+00
  0.00000000E+00  5.50649765E-01  0.00000000E+00  0.00000000E+00  3.50995779E-01
  0.00000000E+00  0.00000000E+00  0.00000000E+00  0.00000000E+00  0.00000000E+00
  0.00000000E+00  0.00000000E+00  0.00000000E+00  0.00000000E+00  0.00000000E+00
  0.00000000E+00  0.00000000E+00  0.00000000E+00  1.82967317E+00  0.00000000E+00
  0.00000000E+00  2.96608409E-02  0.00000000E+00  0.00000000E+00  6.13672278E-02
  0.00000000E+00  0.00000000E+00 -1.20458118E-01  0.00000000E+00  0.00000000E+00
 -4.55494078E-02  0.00000000E+00  0.00000000E+00 -1.15376446E+00  0.00000000E+00
  0.00000000E+00  0.00000000E+00  0.00000000E+00  0.00000000E+00  0.00000000E+00
 -9.91628343E-03 -2.92352326E-02  7.11993392E-02  8.53234189E-02 -7.23505863E-02
 -9.96468145E-01  1.53648814E+00  0.00000000E+00  0.00000000E+00  0.00000000E+00
  0.00000000E+00  0.00000000E+00  0.00000000E+00  0.00000000E+00  0.00000000E+00
  0.00000000E+00  0.00000000E+00  0.00000000E+00  0.00000000E+00  0.00000000E+00
  0.00000000E+00  0.00000000E+00  0.00000000E+00  0.00000000E+00  0.00000000E+00
  4.61256528E-03  0.00000000E+00  0.00000000E+00  7.98919742E-03  0.00000000E+00
  0.00000000E+00  0.00000000E+00  0.00000000E+00  0.00000000E+00  0.00000000E+00
  0.00000000E+00  0.00000000E+00  1.86037007E+00  0.00000000E+00  0.00000000E+00
  3.31675376E-02  0.00000000E+00  0.00000000E+00  6.79939974E-02  0.00000000E+00
  0.00000000E+00 -1.30957804E-01  0.00000000E+00  0.00000000E+00 -5.27271509E-02
  0.00000000E+00  0.00000000E+00 -1.22514103E+00  0.00000000E+00  0.00000000E+00
  0.00000000E+00  0.00000000E+00  0.00000000E+00  0.00000000E+00  0.00000000E+00
  0.00000000E+00  0.00000000E+00  0.00000000E+00  0.00000000E+00  0.00000000E+00
  0.00000000E+00  0.00000000E+00  0.00000000E+00  0.00000000E+00  1.86037007E+00
  0.00000000E+00  0.00000000E+00  3.31675376E-02  0.00000000E+00  0.00000000E+00
  6.79939974E-02  0.00000000E+00  0.00000000E+00 -1.30957804E-01  0.00000000E+00
  0.00000000E+00 -5.27271509E-02  0.00000000E+00  0.00000000E+00 -1.22514103E+00
  0.00000000E+00  0.00000000E+00  0.00000000E+00  0.00000000E+00  0.00000000E+00
  0.00000000E+00  0.00000000E+00  0.00000000E+00  0.00000000E+00  0.00000000E+00
  0.00000000E+00  0.00000000E+00  0.00000000E+00 -1.57841365E+00  0.00000000E+00
  0.00000000E+00  7.35279568E-02  0.00000000E+00  0.00000000E+00  1.27401685E-01
  0.00000000E+00  0.00000000E+00 -1.23312357E-01  0.00000000E+00  0.00000000E+00
 -1.07219859E+00  0.00000000E+00  0.00000000E+00  2.57134032E+00  0.00000000E+00
  0.00000000E+00  0.00000000E+00  0.00000000E+00  0.00000000E+00  0.00000000E+00
  0.00000000E+00  0.00000000E+00  0.00000000E+00  0.00000000E+00  0.00000000E+00
  0.00000000E+00  0.00000000E+00 -1.54493983E+00  0.00000000E+00  0.00000000E+00
  7.60573460E-02  0.00000000E+00  0.00000000E+00  1.30620386E-01  0.00000000E+00
  0.00000000E+00 -1.22061856E-01  0.00000000E+00  0.00000000E+00 -1.10071044E+00
  0.00000000E+00  0.00000000E+00  2.54498866E+00  0.00000000E+00  0.00000000E+00
  0.00000000E+00  0.00000000E+00  0.00000000E+00  0.00000000E+00  0.00000000E+00
  0.00000000E+00  0.00000000E+00  0.00000000E+00  0.00000000E+00  0.00000000E+00
  0.00000000E+00  0.00000000E+00  0.00000000E+00  0.00000000E+00 -1.54493983E+00
  0.00000000E+00  0.00000000E+00  7.60573460E-02  0.00000000E+00  0.00000000E+00
  1.30620386E-01  0.00000000E+00  0.00000000E+00 -1.22061856E-01  0.00000000E+00
  0.00000000E+00 -1.10071044E+00  0.00000000E+00  0.00000000E+00  2.54498866E+00
  0.00000000E+00  0.00000000E+00  0.00000000E+00  0.00000000E+00  0.00000000E+00
 -3.30449847E-02 -9.05569789E-02  1.61792183E-01  5.73121992E-01 -2.33454387E+00
  2.69471186E+00 -1.01392907E+00  0.00000000E+00  0.00000000E+00  0.00000000E+00
  0.00000000E+00  0.00000000E+00  0.00000000E+00  0.00000000E+00  0.00000000E+00
  0.00000000E+00  0.00000000E+00  0.00000000E+00  0.00000000E+00  0.00000000E+00
  0.00000000E+00  0.00000000E+00  0.00000000E+00  0.00000000E+00  0.00000000E+00
  2.13265979E-02  0.00000000E+00  0.00000000E+00  3.69387511E-02  0.00000000E+00
  2.63032707E-03  7.62059659E-03 -1.76021986E-02 -3.13589011E-02  1.17773869E-01
 -8.94451475E-02  2.88461281E-02  0.00000000E+00  0.00000000E+00  0.00000000E+00
  0.00000000E+00  0.00000000E+00  0.00000000E+00  0.00000000E+00  0.00000000E+00
  0.00000000E+00  0.00000000E+00  0.00000000E+00  0.00000000E+00  0.00000000E+00
  0.00000000E+00  0.00000000E+00  0.00000000E+00  0.00000000E+00  0.00000000E+00
  4.99310265E-01  0.00000000E+00  0.00000000E+00  8.64830748E-01  0.00000000E+00
  0.00000000E+00  0.00000000E+00  0.00000000E+00  0.00000000E+00  0.00000000E+00
  0.00000000E+00  0.00000000E+00  0.00000000E+00  0.00000000E+00  0.00000000E+00
  0.00000000E+00  0.00000000E+00  0.00000000E+00  0.00000000E+00  0.00000000E+00
  0.00000000E+00  0.00000000E+00  0.00000000E+00  0.00000000E+00  0.00000000E+00
  0.00000000E+00  0.00000000E+00  0.00000000E+00  0.00000000E+00  0.00000000E+00
  0.00000000E+00  0.00000000E+00  0.00000000E+00  0.00000000E+00  1.00000000E+00
  0.00000000E+00  0.00000000E+00  0.00000000E+00  0.00000000E+00  0.00000000E+00
  0.00000000E+00  0.00000000E+00  0.00000000E+00  0.00000000E+00  0.00000000E+00
  0.00000000E+00  0.00000000E+00  0.00000000E+00  0.00000000E+00  0.00000000E+00
  0.00000000E+00  0.00000000E+00  0.00000000E+00  0.00000000E+00  0.00000000E+00
  0.00000000E+00  0.00000000E+00  0.00000000E+00  0.00000000E+00  0.00000000E+00
  0.00000000E+00  0.00000000E+00  1.00000000E+00  0.00000000E+00  0.00000000E+00
  0.00000000E+00  0.00000000E+00  0.00000000E+00  0.00000000E+00  0.00000000E+00
  0.00000000E+00  0.00000000E+00  0.00000000E+00  0.00000000E+00  0.00000000E+00
  0.00000000E+00  0.00000000E+00  0.00000000E+00  0.00000000E+00  0.00000000E+00
  0.00000000E+00  0.00000000E+00  0.00000000E+00  0.00000000E+00  0.00000000E+00
  0.00000000E+00  0.00000000E+00  0.00000000E+00  0.00000000E+00  0.00000000E+00
  0.00000000E+00  1.00000000E+00  0.00000000E+00  0.00000000E+00  0.00000000E+00
 -2.31218474E-16 -8.07127669E-16  2.62840998E-15  2.92233902E-15 -2.04794426E-14
  2.73072068E-14 -9.98736092E-15  0.00000000E+00  0.00000000E+00  0.00000000E+00
  0.00000000E+00  0.00000000E+00  0.00000000E+00  0.00000000E+00  0.00000000E+00
  0.00000000E+00  0.00000000E+00  0.00000000E+00  0.00000000E+00  0.00000000E+00
  0.00000000E+00  0.00000000E+00  0.00000000E+00  0.00000000E+00  0.00000000E+00
  8.66025404E-01  0.00000000E+00  0.00000000E+00 -5.00000000E-01  0.00000000E+00
  0.00000000E+00  0.00000000E+00  0.00000000E+00  0.00000000E+00  0.00000000E+00
  0.00000000E+00  0.00000000E+00  0.00000000E+00  6.99651461E-01  0.00000000E+00
  0.00000000E+00  1.74254032E-01  0.00000000E+00  0.00000000E+00  4.21357073E-01
  0.00000000E+00  0.00000000E+00 -1.79535003E+00  0.00000000E+00  0.00000000E+00
  1.92964888E+00  0.00000000E+00  0.00000000E+00 -1.34871048E+00  0.00000000E+00
  0.00000000E+00  0.00000000E+00  0.00000000E+00  0.00000000E+00  0.00000000E+00
  0.00000000E+00  0.00000000E+00  0.00000000E+00  0.00000000E+00  0.00000000E+00
  0.00000000E+00  0.00000000E+00  0.00000000E+00  0.00000000E+00  6.90615446E-01
  0.00000000E+00  0.00000000E+00  1.74872844E-01  0.00000000E+00  0.00000000E+00
  4.21125396E-01  0.00000000E+00  0.00000000E+00 -1.79570269E+00  0.00000000E+00
  0.00000000E+00  1.92312886E+00  0.00000000E+00  0.00000000E+00 -1.33328400E+00
  0.00000000E+00  0.00000000E+00  0.00000000E+00  0.00000000E+00  0.00000000E+00
  0.00000000E+00  0.00000000E+00  0.00000000E+00  0.00000000E+00  0.00000000E+00
  0.00000000E+00  0.00000000E+00  6.90615446E-01  0.00000000E+00  0.00000000E+00
  1.74872844E-01  0.00000000E+00  0.00000000E+00  4.21125396E-01  0.00000000E+00
  0.00000000E+00 -1.79570269E+00  0.00000000E+00  0.00000000E+00  1.92312886E+00
  0.00000000E+00  0.00000000E+00 -1.33328400E+00  0.00000000E+00  0.00000000E+00
  0.00000000E+00  0.00000000E+00  0.00000000E+00  0.00000000E+00  0.00000000E+00
  1.14884651E-01  4.54285424E-01 -2.51470492E+00  2.86933311E+00 -1.53839566E+00
  9.03451383E-01 -2.76070019E-01  0.00000000E+00  0.00000000E+00  0.00000000E+00
  0.00000000E+00  0.00000000E+00  0.00000000E+00  0.00000000E+00  0.00000000E+00
  0.00000000E+00  0.00000000E+00  0.00000000E+00  0.00000000E+00  0.00000000E+00
  0.00000000E+00  0.00000000E+00  0.00000000E+00  0.00000000E+00  0.00000000E+00
 -7.96141722E-04  0.00000000E+00  0.00000000E+00 -1.37895791E-03  0.00000000E+00
  0.00000000E+00  0.00000000E+00  0.00000000E+00  0.00000000E+00  0.00000000E+00
  0.00000000E+00  0.00000000E+00  0.00000000E+00  1.80947795E-01  0.00000000E+00
  0.00000000E+00 -1.21218652E+00  0.00000000E+00  0.00000000E+00  1.37261377E+00
  0.00000000E+00  0.00000000E+00 -9.34900404E-01  0.00000000E+00  0.00000000E+00
  5.60845477E-01  0.00000000E+00  0.00000000E+00 -3.42439539E-01  0.00000000E+00
  0.00000000E+00  0.00000000E+00  0.00000000E+00  0.00000000E+00  0.00000000E+00
  0.00000000E+00  0.00000000E+00  0.00000000E+00  0.00000000E+00  0.00000000E+00
  0.00000000E+00  0.00000000E+00  0.00000000E+00  0.00000000E+00  1.80857128E-01
  0.00000000E+00  0.00000000E+00 -1.21205561E+00  0.00000000E+00  0.00000000E+00
  1.37289128E+00  0.00000000E+00  0.00000000E+00 -9.35679787E-01  0.00000000E+00
  0.00000000E+00  5.61020958E-01  0.00000000E+00  0.00000000E+00 -3.42318477E-01
  0.00000000E+00  0.00000000E+00  0.00000000E+00  0.00000000E+00  0.00000000E+00
  0.00000000E+00  0.00000000E+00  0.00000000E+00  0.00000000E+00  0.00000000E+00
  0.00000000E+00  0.00000000E+00  1.80857128E-01  0.00000000E+00  0.00000000E+00
 -1.21205561E+00  0.00000000E+00  0.00000000E+00  1.37289128E+00  0.00000000E+00
  0.00000000E+00 -9.35679787E-01  0.00000000E+00  0.00000000E+00  5.61020958E-01
  0.00000000E+00  0.00000000E+00 -3.42318477E-01  0.00000000E+00  0.00000000E+00
  0.00000000E+00  0.00000000E+00  0.00000000E+00  0.00000000E+00  0.00000000E+00
 -1.53760838E+00  1.87586557E+00 -1.34033631E+00  8.64275090E-01 -3.31068094E-01
  1.90411872E-01 -5.91727854E-02  0.00000000E+00  0.00000000E+00  0.00000000E+00
  0.00000000E+00  0.00000000E+00  0.00000000E+00  0.00000000E+00  0.00000000E+00
  0.00000000E+00  0.00000000E+00  0.00000000E+00  0.00000000E+00  0.00000000E+00
  0.00000000E+00  0.00000000E+00  0.00000000E+00  0.00000000E+00  0.00000000E+00
 -4.00655101E-06  0.00000000E+00  0.00000000E+00 -6.93954992E-06  0.00000000E+00
Beta MO coefficients                       R   N=         900
  4.11087120E-01  6.54273186E-01  1.49720464E-02 -4.10723490E-03  1.35638274E-03
 -7.74384925E-04  2.39762669E-04  0.00000000E+00  0.00000000E+00  0.00000000E+00
  0.00000000E+00  0.00000000E+00  0.00000000E+00  0.00000000E+00  0.00000000E+00
  0.00000000E+00  0.00000000E+00  0.00000000E+00  0.00000000E+00  0.00000000E+00
  0.00000000E+00  0.00000000E+00  0.00000000E+00  0.00000000E+00  0.00000000E+00
 -2.02254081E-06  0.00000000E+00  0.00000000E+00 -3.50314344E-06  0.00000000E+00
 -1.19658902E-01 -3.21024206E-01  5.19887398E-01  5.93342992E-01  4.76394925E-02
 -1.70464044E-02  4.88085857E-03  0.00000000E+00  0.00000000E+00  0.00000000E+00
  0.00000000E+00  0.00000000E+00  0.00000000E+00  0.00000000E+00  0.00000000E+00
  0.00000000E+00  0.00000000E+00  0.00000000E+00  0.00000000E+00  0.00000000E+00
  0.00000000E+00  0.00000000E+00  0.00000000E+00  0.00000000E+00  0.00000000E+00
 -2.96185416E-05  0.00000000E+00  0.00000000E+00 -5.13008189E-05  0.00000000E+00
  0.00000000E+00  0.00000000E+00  0.00000000E+00  0.00000000E+00  0.00000000E+00
  0.00000000E+00  0.00000000E+00  0.00000000E+00 -2.03395902E-03  0.00000000E+00
  0.00000000E+00  3.76416455E-01  0.00000000E+00  0.00000000E+00  7.09721099E-01
  0.00000000E+00  0.00000000E+00  5.71477204E-02  0.00000000E+00  0.00000000E+00
 -6.80862947E-03  0.00000000E+00  0.00000000E+00  3.86532667E-03  0.00000000E+00
  0.00000000E+00  0.00000000E+00  0.00000000E+00  0.00000000E+00  0.00000000E+00
  0.00000000E+00  0.00000000E+00  0.00000000E+00  0.00000000E+00  0.00000000E+00
  0.00000000E+00  0.00000000E+00 -1.81277046E-03  0.00000000E+00  0.00000000E+00
  3.77358025E-01  0.00000000E+00  0.00000000E+00  7.09433544E-01  0.00000000E+00
  0.00000000E+00  5.59474090E-02  0.00000000E+00  0.00000000E+00 -6.15968755E-03
  0.00000000E+00  0.00000000E+00  3.45728059E-03  0.00000000E+00  0.00000000E+00
  0.00000000E+00  0.00000000E+00  0.00000000E+00  0.00000000E+00  0.00000000E+00
  0.00000000E+00  0.00000000E+00  0.00000000E+00  0.00000000E+00  0.00000000E+00
  0.00000000E+00  0.00000000E+00  0.00000000E+00  0.00000000E+00 -1.81277046E-03
  0.00000000E+00  0.00000000E+00  3.77358025E-01  0.00000000E+00  0.00000000E+00
  7.09433544E-01  0.00000000E+00  0.00000000E+00  5.59474090E-02  0.00000000E+00
  0.00000000E+00 -6.15968755E-03  0.00000000E+00  0.00000000E+00  3.45728059E-03
  0.00000000E+00  0.00000000E+00  0.00000000E+00  0.00000000E+00  0.00000000E+00
  3.57405182E-02  1.02201667E-01 -2.21586991E-01 -3.74703264E-01  6.71546261E-01
  5.13069547E-01  1.61992644E-02  0.00000000E+00  0.00000000E+00  0.00000000E+00
  0.00000000E+00  0.00000000E+00  0.00000000E+00  0.00000000E+00  0.00000000E+00
  0.00000000E+00  0.00000000E+00  0.00000000E+00  0.00000000E+00  0.00000000E+00
  0.00000000E+00  0.00000000E+00  0.00000000E+00  0.00000000E+00  0.00000000E+00
  6.07398989E-03  0.00000000E+00  0.00000000E+00  1.05204591E-02  0.00000000E+00
  0.00000000E+00  0.00000000E+00  0.00000000E+00  0.00000000E+00  0.00000000E+00
  0.00000000E+00  0.00000000E+00  9.07101248E-02  0.00000000E+00  0.00000000E+00
 -9.48491030E-02  0.00000000E+00  0.00000000E+00 -1.80365116E-01  0.00000000E+00
  0.00000000E+00  2.53522331E-01  0.00000000E+00  0.00000000E+00  5.37624705E-01
  0.00000000E+00  0.00000000E+00  3.47550836E-01  0.00000000E+00  0.00000000E+00
  0.00000000E+00  0.00000000E+00  0.00000000E+00  0.00000000E+00  0.00000000E+00
  0.00000000E+00  0.00000000E+00  0.00000000E+00  0.00000000E+00  0.00000000E+00
  0.00000000E+00  0.00000000E+00  0.00000000E+00  0.00000000E+00  9.07101248E-02
  0.00000000E+00  0.00000000E+00 -9.48491030E-02  0.00000000E+00  0.00000000E+00
 -1.80365116E-01  0.00000000E+00  0.00000000E+00  2.53522331E-01  0.00000000E+00
  0.00000000E+00  5.37624705E-01  0.00000000E+00  0.00000000E+00  3.47550836E-01
  0.00000000E+00  0.00000000E+00  0.00000000E+00  0.00000000E+00  0.00000000E+00