fubar                                                                   
SP        UPBE1PBE                                                    6-311+G(d,p)        
Number of atoms                            I                1
Info1-9                                    I   N=           9
          11          10           0           0           0         110
           1          18       -1302
Full Title                                 C   N=           1
fubar       
Route                                      C   N=           3
#PBE1PBE/6-311+G(d,p) scf=tight     
Charge                                     I               -2
Multiplicity                               I                2
Number of electrons                        I               37
Number of alpha electrons                  I               19
Number of beta electrons                   I               18
Number of basis functions                  I               48
Number of independent functions            I               48
Number of point charges in /Mol/           I                0
Number of translation vectors              I                0
Atomic numbers                             I   N=           1
          35
Nuclear charges                            R   N=           1
  3.50000000E+01
Current cartesian coordinates              R   N=           3
  0.00000000E+00  0.00000000E+00  0.00000000E+00
Number of symbols in /Mol/                 I                0
Int Atom Types                             I   N=           1
           0
Force Field                                I                0
Atom Types                                 C   N=           1
            
MM charges                                 R   N=           1
  0.00000000E+00
Integer atomic weights                     I   N=           1
          79
Real atomic weights                        R   N=           1
  7.89183361E+01
Atom fragment info                         I   N=           1
           0
Atom residue num                           I   N=           1
           0
Nuclear spins                              I   N=           1
           3
Nuclear ZEff                               R   N=           1
 -2.45000000E+01
Nuclear ZNuc                               R   N=           1
  3.50000000E+01
Nuclear QMom                               R   N=           1
  3.13000000E+01
Nuclear GFac                               R   N=           1
  2.10639900E+00
MicOpt                                     I   N=           1
          -1
Number of residues                         I                0
Number of secondary structures             I                0
SymInf integers                            I   N=          26
           1           8           1           1           1           1
          -1          -1          -1           1          -1          -1
          -1           1          -1          -1          -1          -1
           1           1           1          -1           1           1
           1          -1
RotTr to input orientation                 R   N=          12
  0.00000000E+00  0.00000000E+00 -1.00000000E+00  0.00000000E+00  1.00000000E+00
  0.00000000E+00  1.00000000E+00  0.00000000E+00  0.00000000E+00  0.00000000E+00
  0.00000000E+00  0.00000000E+00
Number of contracted shells                I               19
Number of primitive shells                 I               35
Pure/Cartesian d shells                    I                0
Pure/Cartesian f shells                    I                0
Highest angular momentum                   I                2
Largest degree of contraction              I                6
Shell types                                I   N=          19
           0           0           0           0           0           0
           0           0          -1           1           1           1
           1           1           1           1          -2          -2
          -2
Number of primitives per shell             I   N=          19
           6           3           1           1           1           1
           1           1           1           3           3           3
           1           1           1           1           4           1
           1
Shell to atom map                          I   N=          19
           1           1           1           1           1           1
           1           1           1           1           1           1
           1           1           1           1           1           1
           1
Primitive exponents                        R   N=          35
  4.39700000E+05  6.60300000E+04  1.51400000E+04  4.31700000E+03  1.41400000E+03
  5.23900000E+02  5.23900000E+02  2.07700000E+02  8.65400000E+01  3.05200000E+01
  1.29800000E+01  4.41200000E+00  1.86200000E+00  3.93200000E-01  1.40000000E-01
  3.50000000E-02  2.95700000E+03  7.00300000E+02  2.24600000E+02  8.25900000E+01
  3.31900000E+01  1.42000000E+01  1.42000000E+01  7.43800000E+00  3.52600000E+00
  1.59500000E+00  8.46200000E-01  3.18600000E-01  1.09600000E-01  1.34800000E+02
  3.63900000E+01  1.21600000E+01  4.34100000E+00  1.53500000E+00  4.51000000E-01
Contraction coefficients                   R   N=          35
  8.12983158E-04  6.28486980E-03  3.19193387E-02  1.28797332E-01  3.94591825E-01
  5.41288786E-01  1.83107648E-01  6.17625795E-01  2.53810600E-01  1.00000000E+00
  1.00000000E+00  1.00000000E+00  1.00000000E+00  1.00000000E+00  1.00000000E+00
  1.00000000E+00  2.22598927E-02  1.80199132E-01  8.62395844E-01  3.43987390E-01
  5.07081411E-01  2.58990506E-01  7.96539352E-02  3.73418448E-01  6.04929885E-01
  1.00000000E+00  1.00000000E+00  1.00000000E+00  1.00000000E+00  1.83093925E-02
  1.34995521E-01  4.26085864E-01  6.04279951E-01  1.00000000E+00  1.00000000E+00
P(S=P) Contraction coefficients            R   N=          35
  0.00000000E+00  0.00000000E+00  0.00000000E+00  0.00000000E+00  0.00000000E+00
  0.00000000E+00  0.00000000E+00  0.00000000E+00  0.00000000E+00  0.00000000E+00
  0.00000000E+00  0.00000000E+00  0.00000000E+00  0.00000000E+00  0.00000000E+00
  1.00000000E+00  0.00000000E+00  0.00000000E+00  0.00000000E+00  0.00000000E+00
  0.00000000E+00  0.00000000E+00  0.00000000E+00  0.00000000E+00  0.00000000E+00
  0.00000000E+00  0.00000000E+00  0.00000000E+00  0.00000000E+00  0.00000000E+00
  0.00000000E+00  0.00000000E+00  0.00000000E+00  0.00000000E+00  0.00000000E+00
Coordinates of each shell                  R   N=          57
  0.00000000E+00  0.00000000E+00  0.00000000E+00  0.00000000E+00  0.00000000E+00
  0.00000000E+00  0.00000000E+00  0.00000000E+00  0.00000000E+00  0.00000000E+00
  0.00000000E+00  0.00000000E+00  0.00000000E+00  0.00000000E+00  0.00000000E+00
  0.00000000E+00  0.00000000E+00  0.00000000E+00  0.00000000E+00  0.00000000E+00
  0.00000000E+00  0.00000000E+00  0.00000000E+00  0.00000000E+00  0.00000000E+00
  0.00000000E+00  0.00000000E+00  0.00000000E+00  0.00000000E+00  0.00000000E+00
  0.00000000E+00  0.00000000E+00  0.00000000E+00  0.00000000E+00  0.00000000E+00
  0.00000000E+00  0.00000000E+00  0.00000000E+00  0.00000000E+00  0.00000000E+00
  0.00000000E+00  0.00000000E+00  0.00000000E+00  0.00000000E+00  0.00000000E+00
  0.00000000E+00  0.00000000E+00  0.00000000E+00  0.00000000E+00  0.00000000E+00
  0.00000000E+00  0.00000000E+00  0.00000000E+00  0.00000000E+00  0.00000000E+00
  0.00000000E+00  0.00000000E+00
Num ILSW                                   I              100
ILSW                                       I   N=         100
           1           0           0           0           2           0
           0           0           0           0        1009          -1
           5           0           0           0           0           0
           0           0           0           0           0           0
           1           0           0           0           0           0
           0           0      100000           0          -1           0
           0           0           0           0           0           0
           0           0           0           1           0           0
           0 -2000000000           1           0           0           0
           0           0           4          52           0           0
           0           0          13           0           0           0
           0           0           0           1           0           1
           0           0           0           0           0           0
           0           0           0           0           0           0
           0           0           0           0           0           0
           0           0           0           0           0           0
           0           0           0           0
Num RLSW                                   I               52
RLSW                                       R   N=          52
  7.50000000E-01  7.50000000E-01  1.00000000E+00  1.00000000E+00  2.50000000E-01
  0.00000000E+00  0.00000000E+00  1.00000000E+00  0.00000000E+00  0.00000000E+00
  0.00000000E+00  0.00000000E+00  1.00000000E+00  0.00000000E+00  0.00000000E+00
  0.00000000E+00  0.00000000E+00  1.00000000E+00  0.00000000E+00  0.00000000E+00
  0.00000000E+00  0.00000000E+00  1.00000000E+00  0.00000000E+00  0.00000000E+00
  0.00000000E+00  0.00000000E+00  1.00000000E+00  0.00000000E+00  0.00000000E+00
  0.00000000E+00  0.00000000E+00  1.00000000E+00  0.00000000E+00  0.00000000E+00
  0.00000000E+00  0.00000000E+00  0.00000000E+00  1.00000000E+00  1.00000000E+00
  0.00000000E+00  1.00000000E+00  0.00000000E+00  0.00000000E+00  0.00000000E+00
  0.00000000E+00  0.00000000E+00  0.00000000E+00  0.00000000E+00  0.00000000E+00
  0.00000000E+00  0.00000000E+00
MxBond                                     I                1
NBond                                      I   N=           1
           0
IBond                                      I   N=           1
           0
RBond                                      R   N=           1
  0.00000000E+00
Virial Ratio                               R      2.000924616255880E+00
SCF Energy                                 R     -2.573672107741152E+03
Total Energy                               R     -2.573672107741152E+03
S**2                                       R      7.581679431773303E-01
S**2 after annihilation                    R      7.500496359770485E-01
RMS Density                                R      3.179846553040972E-09
Job Status                                 I                1
Nuclear derivative order                   I                0
External E-field                           R   N=          35
  0.00000000E+00  0.00000000E+00  0.00000000E+00  0.00000000E+00  0.00000000E+00
  0.00000000E+00  0.00000000E+00  0.00000000E+00  0.00000000E+00  0.00000000E+00
  0.00000000E+00  0.00000000E+00  0.00000000E+00  0.00000000E+00  0.00000000E+00
  0.00000000E+00  0.00000000E+00  0.00000000E+00  0.00000000E+00  0.00000000E+00
  0.00000000E+00  0.00000000E+00  0.00000000E+00  0.00000000E+00  0.00000000E+00
  0.00000000E+00  0.00000000E+00  0.00000000E+00  0.00000000E+00  0.00000000E+00
  0.00000000E+00  0.00000000E+00  0.00000000E+00  0.00000000E+00  0.00000000E+00
IOpCl                                      I                1
IROHF                                      I                0
Alpha Orbital Energies                     R   N=          48
 -4.82787293E+02 -6.21874933E+01 -5.59632571E+01 -5.59632571E+01 -5.59632571E+01
 -8.32158720E+00 -6.12552166E+00 -6.12552166E+00 -6.12552166E+00 -2.20900810E+00
 -2.20900810E+00 -2.20900810E+00 -2.20900810E+00 -2.20900810E+00 -3.17920099E-01
  1.22681884E-01  1.22681884E-01  1.22681884E-01  2.72471331E-01  3.12180107E-01
  3.12180107E-01  3.12180107E-01  7.91385477E-01  7.91385477E-01  7.91385477E-01
  9.30307517E-01  1.07292575E+00  1.07292575E+00  1.07292575E+00  1.07292575E+00
  1.07292575E+00  2.41914195E+00  2.41914195E+00  2.41914195E+00  4.62389389E+00
  4.62389389E+00  4.62389389E+00  4.62389389E+00  4.62389389E+00  6.88748699E+00
  8.02108059E+00  8.02108059E+00  8.02108059E+00  4.82917431E+01  2.90511642E+02
  2.90511642E+02  2.90511642E+02  1.02143743E+03
Beta Orbital Energies                      R   N=          48
 -4.82787402E+02 -6.21874403E+01 -5.59634664E+01 -5.59634664E+01 -5.59634664E+01
 -8.32157990E+00 -6.12584427E+00 -6.12584427E+00 -6.12584427E+00 -2.20924607E+00
 -2.20924607E+00 -2.20924607E+00 -2.20924607E+00 -2.20924607E+00 -3.20034811E-01
  1.23261103E-01  1.23261103E-01  1.23261103E-01  3.28822546E-01  3.32430325E-01
  3.32430325E-01  3.32430325E-01  8.01233658E-01  8.01233658E-01  8.01233658E-01
  9.36447036E-01  1.07002979E+00  1.07002979E+00  1.07002979E+00  1.07002979E+00
  1.07002979E+00  2.42013257E+00  2.42013257E+00  2.42013257E+00  4.62330941E+00
  4.62330941E+00  4.62330941E+00  4.62330941E+00  4.62330941E+00  6.88774795E+00
  8.02074863E+00  8.02074863E+00  8.02074863E+00  4.82916955E+01  2.90511275E+02
  2.90511275E+02  2.90511275E+02  1.02143748E+03
Alpha MO coefficients                      R   N=        2304
  3.90064919E-01  6.74223102E-01  8.74882475E-03 -2.18622879E-03  1.05685525E-03
 -5.15748566E-04  1.65185296E-04 -8.73427871E-05  2.18553217E-05  0.00000000E+00
  0.00000000E+00  0.00000000E+00  0.00000000E+00  0.00000000E+00  0.00000000E+00
  0.00000000E+00  0.00000000E+00  0.00000000E+00  0.00000000E+00  0.00000000E+00
  0.00000000E+00  0.00000000E+00  0.00000000E+00  0.00000000E+00  0.00000000E+00
  0.00000000E+00  0.00000000E+00  0.00000000E+00  0.00000000E+00  0.00000000E+00
  0.00000000E+00  0.00000000E+00  0.00000000E+00 -5.86057750E-16  0.00000000E+00
  0.00000000E+00  3.39685391E-16  0.00000000E+00 -6.93300067E-16  0.00000000E+00
  0.00000000E+00  2.64108197E-16  0.00000000E+00 -6.25739770E-16  0.00000000E+00
  0.00000000E+00  3.53170245E-16  0.00000000E+00 -1.28811050E-01 -3.77008026E-01
  6.30171856E-01  4.97023891E-01  4.78281156E-02 -9.53588257E-03  2.61962793E-03
 -1.37586529E-03  3.41624713E-04  0.00000000E+00  0.00000000E+00  0.00000000E+00
  0.00000000E+00  0.00000000E+00  0.00000000E+00  0.00000000E+00  0.00000000E+00
  0.00000000E+00  0.00000000E+00  0.00000000E+00  0.00000000E+00  0.00000000E+00
  0.00000000E+00  0.00000000E+00  0.00000000E+00  0.00000000E+00  0.00000000E+00
  0.00000000E+00  0.00000000E+00  0.00000000E+00  0.00000000E+00  0.00000000E+00
  0.00000000E+00 -4.11905674E-17  0.00000000E+00  0.00000000E+00  2.04634568E-16
  0.00000000E+00  1.16636756E-15  0.00000000E+00  0.00000000E+00 -9.35992862E-16
  0.00000000E+00  5.34502730E-17  0.00000000E+00  0.00000000E+00  1.70898192E-16
  0.00000000E+00  0.00000000E+00  0.00000000E+00  0.00000000E+00  0.00000000E+00
  0.00000000E+00  0.00000000E+00  0.00000000E+00  0.00000000E+00  0.00000000E+00
  0.00000000E+00 -3.08327973E-04  0.00000000E+00  0.00000000E+00  1.26610831E-01
  0.00000000E+00  0.00000000E+00  9.23956265E-01  0.00000000E+00  0.00000000E+00
  3.18790970E-02  0.00000000E+00  0.00000000E+00 -1.42214643E-02  0.00000000E+00
  0.00000000E+00  8.63371726E-03  0.00000000E+00  0.00000000E+00 -2.84892920E-03
  0.00000000E+00  0.00000000E+00  1.05038007E-03  0.00000000E+00  0.00000000E+00
  0.00000000E+00  0.00000000E+00  0.00000000E+00  0.00000000E+00  0.00000000E+00
  0.00000000E+00  0.00000000E+00  0.00000000E+00  0.00000000E+00  0.00000000E+00
  0.00000000E+00  0.00000000E+00  0.00000000E+00  0.00000000E+00  0.00000000E+00
  0.00000000E+00  0.00000000E+00  0.00000000E+00  0.00000000E+00  0.00000000E+00
  0.00000000E+00  0.00000000E+00  0.00000000E+00  0.00000000E+00  0.00000000E+00
 -3.08327973E-04  0.00000000E+00  0.00000000E+00  1.26610831E-01  0.00000000E+00
  0.00000000E+00  9.23956265E-01  0.00000000E+00  0.00000000E+00  3.18790970E-02
  0.00000000E+00  0.00000000E+00 -1.42214643E-02  0.00000000E+00  0.00000000E+00
  8.63371726E-03  0.00000000E+00  0.00000000E+00 -2.84892920E-03  0.00000000E+00
  0.00000000E+00  1.05038007E-03  0.00000000E+00  0.00000000E+00  0.00000000E+00
  0.00000000E+00  0.00000000E+00  0.00000000E+00  0.00000000E+00  0.00000000E+00
  0.00000000E+00  0.00000000E+00  0.00000000E+00  0.00000000E+00  0.00000000E+00
  0.00000000E+00  0.00000000E+00  0.00000000E+00  0.00000000E+00  0.00000000E+00
  0.00000000E+00  0.00000000E+00  0.00000000E+00  0.00000000E+00  0.00000000E+00
  0.00000000E+00 -3.08327973E-04  0.00000000E+00  0.00000000E+00  1.26610831E-01
  0.00000000E+00  0.00000000E+00  9.23956265E-01  0.00000000E+00  0.00000000E+00
  3.18790970E-02  0.00000000E+00  0.00000000E+00 -1.42214643E-02  0.00000000E+00
  0.00000000E+00  8.63371726E-03  0.00000000E+00  0.00000000E+00 -2.84892920E-03
  0.00000000E+00  0.00000000E+00  1.05038007E-03  0.00000000E+00  0.00000000E+00
  0.00000000E+00  0.00000000E+00  0.00000000E+00  0.00000000E+00  0.00000000E+00
  0.00000000E+00  0.00000000E+00  0.00000000E+00  0.00000000E+00  0.00000000E+00
  0.00000000E+00  0.00000000E+00  0.00000000E+00  0.00000000E+00  0.00000000E+00
  5.14453527E-02  1.64717230E-01 -4.21111557E-01 -4.57290144E-01  6.63687973E-01
  6.30747689E-01  3.16997171E-02 -1.00764182E-02  2.25813555E-03  0.00000000E+00
  0.00000000E+00  0.00000000E+00  0.00000000E+00  0.00000000E+00  0.00000000E+00
  0.00000000E+00  0.00000000E+00  0.00000000E+00  0.00000000E+00  0.00000000E+00
  0.00000000E+00  0.00000000E+00  0.00000000E+00  0.00000000E+00  0.00000000E+00
  0.00000000E+00  0.00000000E+00  0.00000000E+00  0.00000000E+00  0.00000000E+00
  0.00000000E+00  0.00000000E+00  0.00000000E+00  4.24640233E-16  0.00000000E+00
  0.00000000E+00 -2.78245940E-16  0.00000000E+00  6.19228924E-16  0.00000000E+00
  0.00000000E+00  1.14467024E-18  0.00000000E+00  1.73682390E-16  0.00000000E+00
  0.00000000E+00  2.84575979E-17  0.00000000E+00  0.00000000E+00  0.00000000E+00
  0.00000000E+00  0.00000000E+00  0.00000000E+00  0.00000000E+00  0.00000000E+00
  0.00000000E+00  0.00000000E+00  0.00000000E+00  0.00000000E+00  4.32639386E-05
  0.00000000E+00  0.00000000E+00 -5.23352235E-02  0.00000000E+00  0.00000000E+00
 -4.23593977E-01  0.00000000E+00  0.00000000E+00  8.79857999E-01  0.00000000E+00
  0.00000000E+00  2.48688771E-01  0.00000000E+00  0.00000000E+00  2.91186227E-02
  0.00000000E+00  0.00000000E+00  2.07171467E-03  0.00000000E+00  0.00000000E+00
 -2.38337089E-04  0.00000000E+00  0.00000000E+00  0.00000000E+00  0.00000000E+00
  0.00000000E+00  0.00000000E+00  0.00000000E+00  0.00000000E+00  0.00000000E+00
  0.00000000E+00  0.00000000E+00  0.00000000E+00  0.00000000E+00  0.00000000E+00
  0.00000000E+00  0.00000000E+00  0.00000000E+00  0.00000000E+00  0.00000000E+00
  0.00000000E+00  0.00000000E+00  0.00000000E+00  0.00000000E+00  0.00000000E+00
  0.00000000E+00  4.32639386E-05  0.00000000E+00  0.00000000E+00 -5.23352235E-02
  0.00000000E+00  0.00000000E+00 -4.23593977E-01  0.00000000E+00  0.00000000E+00
  8.79857999E-01  0.00000000E+00  0.00000000E+00  2.48688771E-01  0.00000000E+00
  0.00000000E+00  2.91186227E-02  0.00000000E+00  0.00000000E+00  2.07171467E-03
  0.00000000E+00  0.00000000E+00 -2.38337089E-04  0.00000000E+00  0.00000000E+00
  0.00000000E+00  0.00000000E+00  0.00000000E+00  0.00000000E+00  0.00000000E+00
  0.00000000E+00  0.00000000E+00  0.00000000E+00  0.00000000E+00  0.00000000E+00
  0.00000000E+00  0.00000000E+00  0.00000000E+00  0.00000000E+00  0.00000000E+00
  0.00000000E+00  0.00000000E+00  0.00000000E+00  0.00000000E+00  0.00000000E+00
  0.00000000E+00  0.00000000E+00  0.00000000E+00  4.32639386E-05  0.00000000E+00
  0.00000000E+00 -5.23352235E-02  0.00000000E+00  0.00000000E+00 -4.23593977E-01
  0.00000000E+00  0.00000000E+00  8.79857999E-01  0.00000000E+00  0.00000000E+00
  2.48688771E-01  0.00000000E+00  0.00000000E+00  2.91186227E-02  0.00000000E+00
  0.00000000E+00  2.07171467E-03  0.00000000E+00  0.00000000E+00 -2.38337089E-04
  0.00000000E+00  0.00000000E+00  0.00000000E+00  0.00000000E+00  0.00000000E+00
  0.00000000E+00  0.00000000E+00  0.00000000E+00  0.00000000E+00  0.00000000E+00
  0.00000000E+00  0.00000000E+00  0.00000000E+00  0.00000000E+00  0.00000000E+00
  0.00000000E+00  0.00000000E+00  0.00000000E+00  0.00000000E+00  0.00000000E+00
  0.00000000E+00  0.00000000E+00  0.00000000E+00  0.00000000E+00  0.00000000E+00
  0.00000000E+00  0.00000000E+00  0.00000000E+00  0.00000000E+00  0.00000000E+00
  0.00000000E+00  0.00000000E+00  0.00000000E+00  0.00000000E+00  0.00000000E+00
  0.00000000E+00  0.00000000E+00  0.00000000E+00  0.00000000E+00  0.00000000E+00
  0.00000000E+00  0.00000000E+00  0.00000000E+00  0.00000000E+00  0.00000000E+00
  0.00000000E+00  0.00000000E+00  0.00000000E+00  0.00000000E+00  0.00000000E+00
  0.00000000E+00  0.00000000E+00  0.00000000E+00  0.00000000E+00  8.09198303E-01
  0.00000000E+00  0.00000000E+00  0.00000000E+00  0.00000000E+00  3.01805507E-01
  0.00000000E+00  0.00000000E+00  0.00000000E+00  0.00000000E+00  4.15744204E-02
  0.00000000E+00  0.00000000E+00  0.00000000E+00  0.00000000E+00  0.00000000E+00
  0.00000000E+00  0.00000000E+00  0.00000000E+00  0.00000000E+00  0.00000000E+00
  0.00000000E+00  0.00000000E+00  0.00000000E+00  0.00000000E+00  0.00000000E+00
  0.00000000E+00  0.00000000E+00  0.00000000E+00  0.00000000E+00  0.00000000E+00
  0.00000000E+00  0.00000000E+00  0.00000000E+00  0.00000000E+00  0.00000000E+00
  0.00000000E+00  0.00000000E+00  0.00000000E+00  0.00000000E+00  0.00000000E+00
  0.00000000E+00  0.00000000E+00  0.00000000E+00  0.00000000E+00  8.09198303E-01
  0.00000000E+00  0.00000000E+00  0.00000000E+00  0.00000000E+00  3.01805507E-01
  0.00000000E+00  0.00000000E+00  0.00000000E+00  0.00000000E+00  4.15744204E-02
  0.00000000E+00  0.00000000E+00  0.00000000E+00  0.00000000E+00  0.00000000E+00
  0.00000000E+00  0.00000000E+00  0.00000000E+00  0.00000000E+00  0.00000000E+00
  0.00000000E+00  0.00000000E+00  0.00000000E+00  0.00000000E+00  0.00000000E+00
  0.00000000E+00  0.00000000E+00  0.00000000E+00  0.00000000E+00  0.00000000E+00
  0.00000000E+00  0.00000000E+00  0.00000000E+00  0.00000000E+00  0.00000000E+00
  0.00000000E+00  0.00000000E+00  0.00000000E+00  0.00000000E+00  0.00000000E+00
  0.00000000E+00  0.00000000E+00  0.00000000E+00  0.00000000E+00  0.00000000E+00
  0.00000000E+00  0.00000000E+00  0.00000000E+00  8.09198303E-01  0.00000000E+00
  0.00000000E+00  0.00000000E+00  0.00000000E+00  3.01805507E-01  0.00000000E+00
  0.00000000E+00  0.00000000E+00  0.00000000E+00  4.15744204E-02  0.00000000E+00
  0.00000000E+00  1.02929989E-17  4.03125769E-17 -1.37185681E-16  1.31604575E-16
 -5.44431249E-16  1.84214716E-15 -4.35445294E-15  3.73188023E-15 -2.22090148E-15
  0.00000000E+00  0.00000000E+00  0.00000000E+00  0.00000000E+00  0.00000000E+00
  0.00000000E+00  0.00000000E+00  0.00000000E+00  0.00000000E+00  0.00000000E+00
  0.00000000E+00  0.00000000E+00  0.00000000E+00  0.00000000E+00  0.00000000E+00
  0.00000000E+00  0.00000000E+00  0.00000000E+00  0.00000000E+00  0.00000000E+00
  0.00000000E+00  0.00000000E+00  0.00000000E+00  0.00000000E+00  8.08009425E-01
  0.00000000E+00  0.00000000E+00  4.38481694E-02  0.00000000E+00  3.01362093E-01
  0.00000000E+00  0.00000000E+00  1.63539876E-02  0.00000000E+00  4.15133391E-02
  0.00000000E+00  0.00000000E+00  2.25280036E-03  0.00000000E+00 -2.18818238E-17
 -7.34030517E-17  2.15330535E-16  5.74406212E-17  2.83511175E-16 -2.16921787E-15
  6.81352622E-15 -8.36945028E-15  4.02895363E-15  0.00000000E+00  0.00000000E+00
  0.00000000E+00  0.00000000E+00  0.00000000E+00  0.00000000E+00  0.00000000E+00
  0.00000000E+00  0.00000000E+00  0.00000000E+00  0.00000000E+00  0.00000000E+00
  0.00000000E+00  0.00000000E+00  0.00000000E+00  0.00000000E+00  0.00000000E+00
  0.00000000E+00  0.00000000E+00  0.00000000E+00  0.00000000E+00  0.00000000E+00
  0.00000000E+00  0.00000000E+00 -4.38481694E-02  0.00000000E+00  0.00000000E+00
  8.08009425E-01  0.00000000E+00 -1.63539876E-02  0.00000000E+00  0.00000000E+00
  3.01362093E-01  0.00000000E+00 -2.25280036E-03  0.00000000E+00  0.00000000E+00
  4.15133391E-02  0.00000000E+00 -1.63415224E-02 -5.28900593E-02  1.42607867E-01
  1.75489396E-01 -3.44510009E-01 -4.35238262E-01  7.99434671E-01  4.15024920E-01
  2.55535785E-02  0.00000000E+00  0.00000000E+00  0.00000000E+00  0.00000000E+00
  0.00000000E+00  0.00000000E+00  0.00000000E+00  0.00000000E+00  0.00000000E+00
  0.00000000E+00  0.00000000E+00  0.00000000E+00  0.00000000E+00  0.00000000E+00
  0.00000000E+00  0.00000000E+00  0.00000000E+00  0.00000000E+00  0.00000000E+00
  0.00000000E+00  0.00000000E+00  0.00000000E+00  0.00000000E+00  0.00000000E+00
 -9.43743463E-16  0.00000000E+00  0.00000000E+00  5.74668390E-16  0.00000000E+00
  1.81746768E-15  0.00000000E+00  0.00000000E+00  8.72531823E-17  0.00000000E+00
 -7.98049844E-16  0.00000000E+00  0.00000000E+00 -1.13390667E-16  0.00000000E+00
  0.00000000E+00  0.00000000E+00  0.00000000E+00  0.00000000E+00  0.00000000E+00
  0.00000000E+00  0.00000000E+00  0.00000000E+00  0.00000000E+00  0.00000000E+00
  2.14373377E-01  0.00000000E+00  0.00000000E+00  1.27532685E-02  0.00000000E+00
  0.00000000E+00  1.05400317E-01  0.00000000E+00  0.00000000E+00 -2.74833156E-01
  0.00000000E+00  0.00000000E+00 -1.02964505E-01  0.00000000E+00  0.00000000E+00
  2.24385075E-01  0.00000000E+00  0.00000000E+00  5.22291670E-01  0.00000000E+00
  0.00000000E+00  3.27254622E-01  0.00000000E+00  0.00000000E+00  0.00000000E+00
  0.00000000E+00  0.00000000E+00  0.00000000E+00  0.00000000E+00  0.00000000E+00
  0.00000000E+00  0.00000000E+00  0.00000000E+00  0.00000000E+00  0.00000000E+00
  0.00000000E+00  0.00000000E+00  0.00000000E+00  0.00000000E+00  0.00000000E+00
  0.00000000E+00  0.00000000E+00  0.00000000E+00  0.00000000E+00  0.00000000E+00
  0.00000000E+00  0.00000000E+00  2.14373377E-01  0.00000000E+00  0.00000000E+00
  1.27532685E-02  0.00000000E+00  0.00000000E+00  1.05400317E-01  0.00000000E+00
  0.00000000E+00 -2.74833156E-01  0.00000000E+00  0.00000000E+00 -1.02964505E-01
  0.00000000E+00  0.00000000E+00  2.24385075E-01  0.00000000E+00  0.00000000E+00
  5.22291670E-01  0.00000000E+00  0.00000000E+00  3.27254622E-01  0.00000000E+00
  0.00000000E+00  0.00000000E+00  0.00000000E+00  0.00000000E+00  0.00000000E+00
  0.00000000E+00  0.00000000E+00  0.00000000E+00  0.00000000E+00  0.00000000E+00
  0.00000000E+00  0.00000000E+00  0.00000000E+00  0.00000000E+00  0.00000000E+00
  0.00000000E+00  0.00000000E+00  0.00000000E+00  0.00000000E+00  0.00000000E+00
  0.00000000E+00  0.00000000E+00  0.00000000E+00  0.00000000E+00  0.00000000E+00
  0.00000000E+00  0.00000000E+00  2.14373377E-01  0.00000000E+00  0.00000000E+00
  1.27532685E-02  0.00000000E+00  0.00000000E+00  1.05400317E-01  0.00000000E+00
  0.00000000E+00 -2.74833156E-01  0.00000000E+00  0.00000000E+00 -1.02964505E-01
  0.00000000E+00  0.00000000E+00  2.24385075E-01  0.00000000E+00  0.00000000E+00
  5.22291670E-01  0.00000000E+00  0.00000000E+00  3.27254622E-01  0.00000000E+00
  0.00000000E+00  0.00000000E+00  0.00000000E+00  0.00000000E+00  0.00000000E+00
  0.00000000E+00  0.00000000E+00  0.00000000E+00  0.00000000E+00  0.00000000E+00
  0.00000000E+00  0.00000000E+00  0.00000000E+00  0.00000000E+00  3.74301579E-03
  1.19581311E-02 -3.07547605E-02 -4.78290964E-02  1.05610132E-01  5.72103209E-02
 -6.45771847E-03 -9.03082065E-01  1.42872425E+00  0.00000000E+00  0.00000000E+00
  0.00000000E+00  0.00000000E+00  0.00000000E+00  0.00000000E+00  0.00000000E+00
  0.00000000E+00  0.00000000E+00  0.00000000E+00  0.00000000E+00  0.00000000E+00
  0.00000000E+00  0.00000000E+00  0.00000000E+00  0.00000000E+00  0.00000000E+00
  0.00000000E+00  0.00000000E+00  0.00000000E+00  0.00000000E+00  0.00000000E+00
  0.00000000E+00  0.00000000E+00  3.72722659E-15  0.00000000E+00  0.00000000E+00
 -4.20598442E-16  0.00000000E+00 -2.26575569E-15  0.00000000E+00  0.00000000E+00
 -1.38759955E-15  0.00000000E+00 -5.35585584E-15  0.00000000E+00  0.00000000E+00
  1.11555428E-15  0.00000000E+00  0.00000000E+00  0.00000000E+00  0.00000000E+00
  0.00000000E+00  0.00000000E+00  0.00000000E+00  0.00000000E+00  0.00000000E+00
  0.00000000E+00  1.30623400E+00  0.00000000E+00  0.00000000E+00 -5.15867313E-03
  0.00000000E+00  0.00000000E+00 -4.21130294E-02  0.00000000E+00  0.00000000E+00
  1.06705461E-01  0.00000000E+00  0.00000000E+00  8.58242713E-02  0.00000000E+00
  0.00000000E+00 -1.93785511E-01  0.00000000E+00  0.00000000E+00 -2.34580528E-02
  0.00000000E+00  0.00000000E+00 -7.47218695E-01  0.00000000E+00  0.00000000E+00
  0.00000000E+00  0.00000000E+00  0.00000000E+00  0.00000000E+00  0.00000000E+00
  0.00000000E+00  0.00000000E+00  0.00000000E+00  0.00000000E+00  0.00000000E+00
  0.00000000E+00  0.00000000E+00  0.00000000E+00  0.00000000E+00  0.00000000E+00
  0.00000000E+00  0.00000000E+00  0.00000000E+00  0.00000000E+00  0.00000000E+00
  0.00000000E+00  0.00000000E+00  0.00000000E+00  0.00000000E+00  0.00000000E+00
  1.30623400E+00  0.00000000E+00  0.00000000E+00 -5.15867313E-03  0.00000000E+00
  0.00000000E+00 -4.21130294E-02  0.00000000E+00  0.00000000E+00  1.06705461E-01
  0.00000000E+00  0.00000000E+00  8.58242713E-02  0.00000000E+00  0.00000000E+00
 -1.93785511E-01  0.00000000E+00  0.00000000E+00 -2.34580528E-02  0.00000000E+00
  0.00000000E+00 -7.47218695E-01  0.00000000E+00  0.00000000E+00  0.00000000E+00
  0.00000000E+00  0.00000000E+00  0.00000000E+00  0.00000000E+00  0.00000000E+00
  0.00000000E+00  0.00000000E+00  0.00000000E+00  0.00000000E+00  0.00000000E+00
  0.00000000E+00  0.00000000E+00  0.00000000E+00  0.00000000E+00  0.00000000E+00
  0.00000000E+00  0.00000000E+00  0.00000000E+00  0.00000000E+00  0.00000000E+00
  0.00000000E+00  0.00000000E+00  0.00000000E+00  0.00000000E+00  1.30623400E+00
  0.00000000E+00  0.00000000E+00 -5.15867313E-03  0.00000000E+00  0.00000000E+00
 -4.21130294E-02  0.00000000E+00  0.00000000E+00  1.06705461E-01  0.00000000E+00
  0.00000000E+00  8.58242713E-02  0.00000000E+00  0.00000000E+00 -1.93785511E-01
  0.00000000E+00  0.00000000E+00 -2.34580528E-02  0.00000000E+00  0.00000000E+00
 -7.47218695E-01  0.00000000E+00  0.00000000E+00  0.00000000E+00  0.00000000E+00