fubar                                                                   
SP        UPBE1PBE                                                    6-311+G(d,p)        
Number of atoms                            I                1
Info1-9                                    I   N=           9
          11          10           0           0           0         110
           1          18       -1302
Full Title                                 C   N=           1
fubar       
Route                                      C   N=           3
#PBE1PBE/6-311+G(d,p) scf=tight     
Charge                                     I               -1
Multiplicity                               I                4
Number of electrons                        I                7
Number of alpha electrons                  I                5
Number of beta electrons                   I                2
Number of basis functions                  I               22
Number of independent functions            I               22
Number of point charges in /Mol/           I                0
Number of translation vectors              I                0
Atomic numbers                             I   N=           1
           6
Nuclear charges                            R   N=           1
  6.00000000E+00
Current cartesian coordinates              R   N=           3
  0.00000000E+00  0.00000000E+00  0.00000000E+00
Number of symbols in /Mol/                 I                0
Int Atom Types                             I   N=           1
           0
Force Field                                I                0
Atom Types                                 C   N=           1
            
MM charges                                 R   N=           1
  0.00000000E+00
Integer atomic weights                     I   N=           1
          12
Real atomic weights                        R   N=           1
  1.20000000E+01
Atom fragment info                         I   N=           1
           0
Atom residue num                           I   N=           1
           0
Nuclear spins                              I   N=           1
           0
Nuclear ZEff                               R   N=           1
 -3.60000000E+00
Nuclear ZNuc                               R   N=           1
  6.00000000E+00
Nuclear QMom                               R   N=           1
  0.00000000E+00
Nuclear GFac                               R   N=           1
  0.00000000E+00
MicOpt                                     I   N=           1
          -1
Number of residues                         I                0
Number of secondary structures             I                0
SymInf integers                            I   N=          26
           1           8           1           1           1           1
          -1          -1          -1           1          -1          -1
          -1           1          -1          -1          -1          -1
           1           1           1          -1           1           1
           1          -1
RotTr to input orientation                 R   N=          12
  0.00000000E+00  0.00000000E+00 -1.00000000E+00  0.00000000E+00  1.00000000E+00
  0.00000000E+00  1.00000000E+00  0.00000000E+00  0.00000000E+00  0.00000000E+00
  0.00000000E+00  0.00000000E+00
Number of contracted shells                I                6
Number of primitive shells                 I               13
Pure/Cartesian d shells                    I                0
Pure/Cartesian f shells                    I                0
Highest angular momentum                   I                2
Largest degree of contraction              I                6
Shell types                                I   N=           6
           0          -1          -1          -1          -1          -2
Number of primitives per shell             I   N=           6
           6           3           1           1           1           1
Shell to atom map                          I   N=           6
           1           1           1           1           1           1
Primitive exponents                        R   N=          13
  4.56324000E+03  6.82024000E+02  1.54973000E+02  4.44553000E+01  1.30290000E+01
  1.82773000E+00  2.09642000E+01  4.80331000E+00  1.45933000E+00  4.83456000E-01
  1.45585000E-01  4.38000000E-02  6.26000000E-01
Contraction coefficients                   R   N=          13
  1.96665025E-03  1.52306019E-02  7.61269097E-02  2.60801033E-01  6.16462078E-01
  2.21006028E-01  1.14660081E-01  9.19999648E-01 -3.03068213E-03  1.00000000E+00
  1.00000000E+00  1.00000000E+00  1.00000000E+00
P(S=P) Contraction coefficients            R   N=          13
  0.00000000E+00  0.00000000E+00  0.00000000E+00  0.00000000E+00  0.00000000E+00
  0.00000000E+00  4.02486927E-02  2.37593957E-01  8.15853851E-01  1.00000000E+00
  1.00000000E+00  1.00000000E+00  0.00000000E+00
Coordinates of each shell                  R   N=          18
  0.00000000E+00  0.00000000E+00  0.00000000E+00  0.00000000E+00  0.00000000E+00
  0.00000000E+00  0.00000000E+00  0.00000000E+00  0.00000000E+00  0.00000000E+00
  0.00000000E+00  0.00000000E+00  0.00000000E+00  0.00000000E+00  0.00000000E+00
  0.00000000E+00  0.00000000E+00  0.00000000E+00
Num ILSW                                   I              100
ILSW                                       I   N=         100
           1           0           0           0           2           0
           0           0           0           0        1009          -1
           5           0           0           0           0           0
           0           0           0           0           0           0
           1           0           0           0           0           0
           0           0      100000           0          -1           0
           0           0           0           0           0           0
           0           0           0           1           0           0
           0 -2000000000           1           0           0           0
           0           0           4          52           0           0
           0           0          13           0           0           0
           0           0           0           1           0           1
           0           0           0           0           0           0
           0           0           0           0           0           0
           0           0           0           0           0           0
           0           0           0           0           0           0
           0           0           0           0
Num RLSW                                   I               52
RLSW                                       R   N=          52
  7.50000000E-01  7.50000000E-01  1.00000000E+00  1.00000000E+00  2.50000000E-01
  0.00000000E+00  0.00000000E+00  1.00000000E+00  0.00000000E+00  0.00000000E+00
  0.00000000E+00  0.00000000E+00  1.00000000E+00  0.00000000E+00  0.00000000E+00
  0.00000000E+00  0.00000000E+00  1.00000000E+00  0.00000000E+00  0.00000000E+00
  0.00000000E+00  0.00000000E+00  1.00000000E+00  0.00000000E+00  0.00000000E+00
  0.00000000E+00  0.00000000E+00  1.00000000E+00  0.00000000E+00  0.00000000E+00
  0.00000000E+00  0.00000000E+00  1.00000000E+00  0.00000000E+00  0.00000000E+00
  0.00000000E+00  0.00000000E+00  0.00000000E+00  1.00000000E+00  1.00000000E+00
  0.00000000E+00  1.00000000E+00  0.00000000E+00  0.00000000E+00  0.00000000E+00
  0.00000000E+00  0.00000000E+00  0.00000000E+00  0.00000000E+00  0.00000000E+00
  0.00000000E+00  0.00000000E+00
MxBond                                     I                1
NBond                                      I   N=           1
           0
IBond                                      I   N=           1
           0
RBond                                      R   N=           1
  0.00000000E+00
Virial Ratio                               R      2.002448365117607E+00
SCF Energy                                 R     -3.785475749272491E+01
Total Energy                               R     -3.785475749272491E+01
S**2                                       R      3.752782783795826E+00
S**2 after annihilation                    R      3.750000005179782E+00
RMS Density                                R      9.485238361770284E-10
Job Status                                 I                1
Nuclear derivative order                   I                0
External E-field                           R   N=          35
  0.00000000E+00  0.00000000E+00  0.00000000E+00  0.00000000E+00  0.00000000E+00
  0.00000000E+00  0.00000000E+00  0.00000000E+00  0.00000000E+00  0.00000000E+00
  0.00000000E+00  0.00000000E+00  0.00000000E+00  0.00000000E+00  0.00000000E+00
  0.00000000E+00  0.00000000E+00  0.00000000E+00  0.00000000E+00  0.00000000E+00
  0.00000000E+00  0.00000000E+00  0.00000000E+00  0.00000000E+00  0.00000000E+00
  0.00000000E+00  0.00000000E+00  0.00000000E+00  0.00000000E+00  0.00000000E+00
  0.00000000E+00  0.00000000E+00  0.00000000E+00  0.00000000E+00  0.00000000E+00
IOpCl                                      I                1
IROHF                                      I                0
Alpha Orbital Energies                     R   N=          22
 -9.99840138E+00 -2.98646580E-01  3.65205827E-02  3.65205827E-02  3.65205827E-02
  2.16520556E-01  2.44194363E-01  2.44194363E-01  2.44194363E-01  7.90299585E-01
  7.90299585E-01  7.90299585E-01  9.02309479E-01  1.59261054E+00  1.59261054E+00
  1.59261054E+00  1.59261054E+00  1.59261054E+00  2.97571321E+00  2.97571321E+00
  2.97571321E+00  2.35999683E+01
Beta Orbital Energies                      R   N=          22
 -9.96285440E+00 -1.44254425E-01  2.02357444E-01  2.02357444E-01  2.02357444E-01
  2.56314911E-01  3.18901292E-01  3.18901292E-01  3.18901292E-01  8.75657694E-01
  8.75657694E-01  8.75657694E-01  9.85364152E-01  1.71461200E+00  1.71461200E+00
  1.71461200E+00  1.71461200E+00  1.71461200E+00  3.06107786E+00  3.06107786E+00
  3.06107786E+00  2.36352895E+01
Alpha MO coefficients                      R   N=         484
  5.62393560E-01  4.64849023E-01  0.00000000E+00  0.00000000E+00  0.00000000E+00
  1.33933662E-02  0.00000000E+00  0.00000000E+00  0.00000000E+00 -6.56264989E-03
  0.00000000E+00  0.00000000E+00  0.00000000E+00  2.31048660E-03  0.00000000E+00
  0.00000000E+00  0.00000000E+00 -3.87701658E-16  0.00000000E+00  0.00000000E+00
  1.29939495E-16  0.00000000E+00 -1.25124568E-01 -2.01161135E-01  0.00000000E+00
  0.00000000E+00  0.00000000E+00  5.63623288E-01  0.00000000E+00  0.00000000E+00
  0.00000000E+00  5.17554940E-01  0.00000000E+00  0.00000000E+00  0.00000000E+00
  4.93428967E-02  0.00000000E+00  0.00000000E+00  0.00000000E+00 -4.02037748E-16
  0.00000000E+00  0.00000000E+00 -5.91008601E-16  0.00000000E+00  0.00000000E+00
  0.00000000E+00  0.00000000E+00  0.00000000E+00  2.49052701E-01  0.00000000E+00
  0.00000000E+00  0.00000000E+00  3.89366148E-01  0.00000000E+00  0.00000000E+00
  0.00000000E+00  3.98528731E-01  0.00000000E+00  0.00000000E+00  0.00000000E+00
  2.62255406E-01  0.00000000E+00  0.00000000E+00  0.00000000E+00  0.00000000E+00
  0.00000000E+00  0.00000000E+00  0.00000000E+00  2.49052701E-01  0.00000000E+00
  0.00000000E+00  0.00000000E+00  3.89366148E-01  0.00000000E+00  0.00000000E+00
  0.00000000E+00  3.98528731E-01  0.00000000E+00  0.00000000E+00  0.00000000E+00
  2.62255406E-01  0.00000000E+00  0.00000000E+00  0.00000000E+00  0.00000000E+00
  0.00000000E+00  0.00000000E+00  0.00000000E+00  0.00000000E+00  0.00000000E+00
  0.00000000E+00  2.49052701E-01  0.00000000E+00  0.00000000E+00  0.00000000E+00
  3.89366148E-01  0.00000000E+00  0.00000000E+00  0.00000000E+00  3.98528731E-01
  0.00000000E+00  0.00000000E+00  0.00000000E+00  2.62255406E-01  0.00000000E+00
  0.00000000E+00  0.00000000E+00  0.00000000E+00  0.00000000E+00  0.00000000E+00
  3.98266607E-02  5.98634501E-02  0.00000000E+00  0.00000000E+00  0.00000000E+00
 -8.95972858E-02  0.00000000E+00  0.00000000E+00  0.00000000E+00 -9.94186598E-01
  0.00000000E+00  0.00000000E+00  0.00000000E+00  1.53177537E+00  0.00000000E+00
  0.00000000E+00  0.00000000E+00  4.03456943E-16  0.00000000E+00  0.00000000E+00
  7.74665779E-16  0.00000000E+00  0.00000000E+00  0.00000000E+00 -1.50147309E-01
  0.00000000E+00  0.00000000E+00  0.00000000E+00 -1.36042804E-01  0.00000000E+00
  0.00000000E+00  0.00000000E+00 -6.28673133E-01  0.00000000E+00  0.00000000E+00
  0.00000000E+00  1.21620928E+00  0.00000000E+00  0.00000000E+00  0.00000000E+00
  0.00000000E+00  0.00000000E+00  0.00000000E+00  0.00000000E+00  0.00000000E+00
  0.00000000E+00  0.00000000E+00  0.00000000E+00 -1.50147309E-01  0.00000000E+00
  0.00000000E+00  0.00000000E+00 -1.36042804E-01  0.00000000E+00  0.00000000E+00
  0.00000000E+00 -6.28673133E-01  0.00000000E+00  0.00000000E+00  0.00000000E+00
  1.21620928E+00  0.00000000E+00  0.00000000E+00  0.00000000E+00  0.00000000E+00
  0.00000000E+00  0.00000000E+00  0.00000000E+00  0.00000000E+00 -1.50147309E-01
  0.00000000E+00  0.00000000E+00  0.00000000E+00 -1.36042804E-01  0.00000000E+00
  0.00000000E+00  0.00000000E+00 -6.28673133E-01  0.00000000E+00  0.00000000E+00
  0.00000000E+00  1.21620928E+00  0.00000000E+00  0.00000000E+00  0.00000000E+00
  0.00000000E+00  0.00000000E+00  0.00000000E+00  0.00000000E+00  0.00000000E+00
 -2.54770212E-01  0.00000000E+00  0.00000000E+00  0.00000000E+00 -9.51198227E-01
  0.00000000E+00  0.00000000E+00  0.00000000E+00  1.56825285E+00  0.00000000E+00
  0.00000000E+00  0.00000000E+00 -6.44838069E-01  0.00000000E+00  0.00000000E+00
  0.00000000E+00  0.00000000E+00  0.00000000E+00  0.00000000E+00  0.00000000E+00
  0.00000000E+00  0.00000000E+00  0.00000000E+00  0.00000000E+00 -2.54770212E-01
  0.00000000E+00  0.00000000E+00  0.00000000E+00 -9.51198227E-01  0.00000000E+00
  0.00000000E+00  0.00000000E+00  1.56825285E+00  0.00000000E+00  0.00000000E+00
  0.00000000E+00 -6.44838069E-01  0.00000000E+00  0.00000000E+00  0.00000000E+00
  0.00000000E+00  0.00000000E+00  0.00000000E+00  0.00000000E+00  0.00000000E+00
 -2.54770212E-01  0.00000000E+00  0.00000000E+00  0.00000000E+00 -9.51198227E-01
  0.00000000E+00  0.00000000E+00  0.00000000E+00  1.56825285E+00  0.00000000E+00
  0.00000000E+00  0.00000000E+00 -6.44838069E-01  0.00000000E+00  0.00000000E+00
  0.00000000E+00  0.00000000E+00  0.00000000E+00  0.00000000E+00  1.28061519E-01
  2.63255346E-01  0.00000000E+00  0.00000000E+00  0.00000000E+00 -1.89604612E+00
  0.00000000E+00  0.00000000E+00  0.00000000E+00  2.41409026E+00  0.00000000E+00
  0.00000000E+00  0.00000000E+00 -9.60699640E-01  0.00000000E+00  0.00000000E+00
  0.00000000E+00 -1.78084908E-15  0.00000000E+00  0.00000000E+00 -1.96173947E-15
  0.00000000E+00  0.00000000E+00  0.00000000E+00  0.00000000E+00  0.00000000E+00
  0.00000000E+00  0.00000000E+00  0.00000000E+00  0.00000000E+00  0.00000000E+00
  0.00000000E+00  0.00000000E+00  0.00000000E+00  0.00000000E+00  0.00000000E+00
  0.00000000E+00  0.00000000E+00  0.00000000E+00  0.00000000E+00  0.00000000E+00
  1.00000000E+00  0.00000000E+00  0.00000000E+00  0.00000000E+00  0.00000000E+00
  0.00000000E+00  0.00000000E+00  0.00000000E+00  0.00000000E+00  0.00000000E+00
  0.00000000E+00  0.00000000E+00  0.00000000E+00  0.00000000E+00  0.00000000E+00
  0.00000000E+00  0.00000000E+00  0.00000000E+00  0.00000000E+00  0.00000000E+00
  0.00000000E+00  1.00000000E+00  0.00000000E+00  0.00000000E+00  0.00000000E+00
  0.00000000E+00  0.00000000E+00  0.00000000E+00  0.00000000E+00  0.00000000E+00
  0.00000000E+00  0.00000000E+00  0.00000000E+00  0.00000000E+00  0.00000000E+00
  0.00000000E+00  0.00000000E+00  0.00000000E+00  0.00000000E+00  0.00000000E+00
  0.00000000E+00  0.00000000E+00  0.00000000E+00  0.00000000E+00  0.00000000E+00
  0.00000000E+00  1.00000000E+00  1.22219083E-16  2.71875801E-16  0.00000000E+00
  0.00000000E+00  0.00000000E+00 -3.36400714E-15  0.00000000E+00  0.00000000E+00
  0.00000000E+00  6.47131308E-15  0.00000000E+00  0.00000000E+00  0.00000000E+00
 -3.12780020E-15  0.00000000E+00  0.00000000E+00  0.00000000E+00  9.39297939E-01
  0.00000000E+00  0.00000000E+00  3.43102582E-01  0.00000000E+00  8.06894532E-17
  7.69686204E-17  0.00000000E+00  0.00000000E+00  0.00000000E+00 -7.51142569E-16
  0.00000000E+00  0.00000000E+00  0.00000000E+00  1.53370374E-15  0.00000000E+00
  0.00000000E+00  0.00000000E+00 -1.28323193E-15  0.00000000E+00  0.00000000E+00
  0.00000000E+00 -3.43102582E-01  0.00000000E+00  0.00000000E+00  9.39297939E-01
  0.00000000E+00  0.00000000E+00  0.00000000E+00  0.00000000E+00  0.00000000E+00
 -1.32231696E+00  0.00000000E+00  0.00000000E+00  0.00000000E+00  1.57048122E+00
  0.00000000E+00  0.00000000E+00  0.00000000E+00 -8.43002238E-01  0.00000000E+00
  0.00000000E+00  0.00000000E+00  2.72774660E-01  0.00000000E+00  0.00000000E+00
  0.00000000E+00  0.00000000E+00  0.00000000E+00  0.00000000E+00  0.00000000E+00
 -1.32231696E+00  0.00000000E+00  0.00000000E+00  0.00000000E+00  1.57048122E+00
  0.00000000E+00  0.00000000E+00  0.00000000E+00 -8.43002238E-01  0.00000000E+00
  0.00000000E+00  0.00000000E+00  2.72774660E-01  0.00000000E+00  0.00000000E+00
  0.00000000E+00  0.00000000E+00  0.00000000E+00  0.00000000E+00  0.00000000E+00
  0.00000000E+00  0.00000000E+00  0.00000000E+00 -1.32231696E+00  0.00000000E+00
  0.00000000E+00  0.00000000E+00  1.57048122E+00  0.00000000E+00  0.00000000E+00
  0.00000000E+00 -8.43002238E-01  0.00000000E+00  0.00000000E+00  0.00000000E+00
  2.72774660E-01  0.00000000E+00  0.00000000E+00  0.00000000E+00  0.00000000E+00
  0.00000000E+00  0.00000000E+00 -2.02442872E+00  2.16084771E+00  0.00000000E+00
  0.00000000E+00  0.00000000E+00 -4.07825805E-01  0.00000000E+00  0.00000000E+00
  0.00000000E+00  3.23392838E-01  0.00000000E+00  0.00000000E+00  0.00000000E+00
 -1.14661079E-01  0.00000000E+00  0.00000000E+00  0.00000000E+00  1.36676582E-17
  0.00000000E+00  0.00000000E+00  3.11620590E-17  0.00000000E+00
Beta MO coefficients                       R   N=         484
  5.64189618E-01  4.64347571E-01  0.00000000E+00  0.00000000E+00  0.00000000E+00
  9.53576631E-03  0.00000000E+00  0.00000000E+00  0.00000000E+00 -5.02184830E-03
  0.00000000E+00  0.00000000E+00  0.00000000E+00  1.70559164E-03  0.00000000E+00
  0.00000000E+00  0.00000000E+00 -1.43949221E-16  0.00000000E+00  0.00000000E+00
 -2.44611445E-16  0.00000000E+00 -1.20409770E-01 -1.89891761E-01  0.00000000E+00
  0.00000000E+00  0.00000000E+00  5.18167241E-01  0.00000000E+00  0.00000000E+00
  0.00000000E+00  5.20077917E-01  0.00000000E+00  0.00000000E+00  0.00000000E+00
  1.02860128E-01  0.00000000E+00  0.00000000E+00  0.00000000E+00 -7.93290171E-17
  0.00000000E+00  0.00000000E+00 -6.95932792E-16  0.00000000E+00  0.00000000E+00
  0.00000000E+00  0.00000000E+00  1.37857037E-01  0.00000000E+00  0.00000000E+00
  0.00000000E+00  2.39740510E-01  0.00000000E+00  0.00000000E+00  0.00000000E+00
  1.06976101E-01  0.00000000E+00  0.00000000E+00  0.00000000E+00  7.88784695E-01
  0.00000000E+00  0.00000000E+00  0.00000000E+00  0.00000000E+00  0.00000000E+00
  0.00000000E+00  0.00000000E+00  0.00000000E+00  0.00000000E+00  0.00000000E+00
  1.37857037E-01  0.00000000E+00  0.00000000E+00  0.00000000E+00  2.39740510E-01
  0.00000000E+00  0.00000000E+00  0.00000000E+00  1.06976101E-01  0.00000000E+00
  0.00000000E+00  0.00000000E+00  7.88784695E-01  0.00000000E+00  0.00000000E+00
  0.00000000E+00  0.00000000E+00  0.00000000E+00  0.00000000E+00  0.00000000E+00
  1.37857037E-01  0.00000000E+00  0.00000000E+00  0.00000000E+00  2.39740510E-01
  0.00000000E+00  0.00000000E+00  0.00000000E+00  1.06976101E-01  0.00000000E+00
  0.00000000E+00  0.00000000E+00  7.88784695E-01  0.00000000E+00  0.00000000E+00
  0.00000000E+00  0.00000000E+00  0.00000000E+00  0.00000000E+00  0.00000000E+00
  4.24198854E-02  6.14896176E-02  0.00000000E+00  0.00000000E+00  0.00000000E+00
 -6.52136699E-02  0.00000000E+00  0.00000000E+00  0.00000000E+00 -1.08246619E+00
  0.00000000E+00  0.00000000E+00  0.00000000E+00  1.55301433E+00  0.00000000E+00
  0.00000000E+00  0.00000000E+00  3.23005757E-16  0.00000000E+00  0.00000000E+00
  1.17867996E-15  0.00000000E+00  0.00000000E+00  0.00000000E+00 -2.30881585E-01
  0.00000000E+00  0.00000000E+00  0.00000000E+00 -2.30951223E-01  0.00000000E+00
  0.00000000E+00  0.00000000E+00 -8.61116025E-01  0.00000000E+00  0.00000000E+00
  0.00000000E+00  9.90484568E-01  0.00000000E+00  0.00000000E+00  0.00000000E+00
  0.00000000E+00  0.00000000E+00  0.00000000E+00  0.00000000E+00  0.00000000E+00
  0.00000000E+00  0.00000000E+00 -2.30881585E-01  0.00000000E+00  0.00000000E+00
  0.00000000E+00 -2.30951223E-01  0.00000000E+00  0.00000000E+00  0.00000000E+00
 -8.61116025E-01  0.00000000E+00  0.00000000E+00  0.00000000E+00  9.90484568E-01
  0.00000000E+00  0.00000000E+00  0.00000000E+00  0.00000000E+00  0.00000000E+00
  0.00000000E+00  0.00000000E+00  0.00000000E+00  0.00000000E+00  0.00000000E+00
 -2.30881585E-01  0.00000000E+00  0.00000000E+00  0.00000000E+00 -2.30951223E-01
  0.00000000E+00  0.00000000E+00  0.00000000E+00 -8.61116025E-01  0.00000000E+00
  0.00000000E+00  0.00000000E+00  9.90484568E-01  0.00000000E+00  0.00000000E+00
  0.00000000E+00  0.00000000E+00  0.00000000E+00  0.00000000E+00  0.00000000E+00
 -2.66765826E-01  0.00000000E+00  0.00000000E+00  0.00000000E+00 -9.95471049E-01
  0.00000000E+00  0.00000000E+00  0.00000000E+00  1.51114125E+00  0.00000000E+00
  0.00000000E+00  0.00000000E+00 -6.02726512E-01  0.00000000E+00  0.00000000E+00
  0.00000000E+00  0.00000000E+00  0.00000000E+00  0.00000000E+00  0.00000000E+00
  0.00000000E+00  0.00000000E+00  0.00000000E+00 -2.66765826E-01  0.00000000E+00
  0.00000000E+00  0.00000000E+00 -9.95471049E-01  0.00000000E+00  0.00000000E+00
  0.00000000E+00  1.51114125E+00  0.00000000E+00  0.00000000E+00  0.00000000E+00
 -6.02726512E-01  0.00000000E+00  0.00000000E+00  0.00000000E+00  0.00000000E+00
  0.00000000E+00  0.00000000E+00  0.00000000E+00  0.00000000E+00  0.00000000E+00
  0.00000000E+00 -2.66765826E-01  0.00000000E+00  0.00000000E+00  0.00000000E+00
 -9.95471049E-01  0.00000000E+00  0.00000000E+00  0.00000000E+00  1.51114125E+00
  0.00000000E+00  0.00000000E+00  0.00000000E+00 -6.02726512E-01  0.00000000E+00
  0.00000000E+00  0.00000000E+00  0.00000000E+00  0.00000000E+00  1.31879436E-01
  2.67481822E-01  0.00000000E+00  0.00000000E+00  0.00000000E+00 -1.90972013E+00
  0.00000000E+00  0.00000000E+00  0.00000000E+00  2.37520730E+00  0.00000000E+00
  0.00000000E+00  0.00000000E+00 -9.21550827E-01  0.00000000E+00  0.00000000E+00
  0.00000000E+00 -2.14580752E-15  0.00000000E+00  0.00000000E+00 -4.16216764E-15
  0.00000000E+00  0.00000000E+00  0.00000000E+00  0.00000000E+00  0.00000000E+00
  0.00000000E+00  0.00000000E+00  0.00000000E+00  0.00000000E+00  0.00000000E+00
  0.00000000E+00  0.00000000E+00  0.00000000E+00  0.00000000E+00  0.00000000E+00
  0.00000000E+00  0.00000000E+00  0.00000000E+00  0.00000000E+00  0.00000000E+00
  1.00000000E+00  0.00000000E+00  0.00000000E+00  0.00000000E+00  0.00000000E+00
  0.00000000E+00  0.00000000E+00  0.00000000E+00  0.00000000E+00  0.00000000E+00
  0.00000000E+00  0.00000000E+00  0.00000000E+00  0.00000000E+00  0.00000000E+00
  0.00000000E+00  0.00000000E+00  0.00000000E+00  0.00000000E+00  0.00000000E+00
  0.00000000E+00  1.00000000E+00  0.00000000E+00  0.00000000E+00  0.00000000E+00
  0.00000000E+00  0.00000000E+00  0.00000000E+00  0.00000000E+00  0.00000000E+00
  0.00000000E+00  0.00000000E+00  0.00000000E+00  0.00000000E+00  0.00000000E+00
  0.00000000E+00  0.00000000E+00  0.00000000E+00  0.00000000E+00  0.00000000E+00
  0.00000000E+00  0.00000000E+00  0.00000000E+00  0.00000000E+00  0.00000000E+00
  0.00000000E+00  1.00000000E+00  4.67782913E-16  1.00963450E-15  0.00000000E+00
  0.00000000E+00  0.00000000E+00 -8.07208836E-15  0.00000000E+00  0.00000000E+00
  0.00000000E+00  1.05993448E-14  0.00000000E+00  0.00000000E+00  0.00000000E+00
 -4.86159104E-15  0.00000000E+00  0.00000000E+00  0.00000000E+00 -3.59387429E-01
  0.00000000E+00  0.00000000E+00  9.33188446E-01  0.00000000E+00  6.15586401E-16
  1.16588968E-15  0.00000000E+00  0.00000000E+00  0.00000000E+00 -8.49508751E-15
  0.00000000E+00  0.00000000E+00  0.00000000E+00  1.10882336E-14  0.00000000E+00
  0.00000000E+00  0.00000000E+00 -4.76935168E-15  0.00000000E+00  0.00000000E+00
  0.00000000E+00  9.33188446E-01  0.00000000E+00  0.00000000E+00  3.59387429E-01
  0.00000000E+00  0.00000000E+00  0.00000000E+00  0.00000000E+00  0.00000000E+00
 -1.32458544E+00  0.00000000E+00  0.00000000E+00  0.00000000E+00  1.56189832E+00
  0.00000000E+00  0.00000000E+00  0.00000000E+00 -8.29223884E-01  0.00000000E+00
  0.00000000E+00  0.00000000E+00  2.67665534E-01  0.00000000E+00  0.00000000E+00
  0.00000000E+00  0.00000000E+00  0.00000000E+00  0.00000000E+00  0.00000000E+00
  0.00000000E+00 -1.32458544E+00  0.00000000E+00  0.00000000E+00  0.00000000E+00
  1.56189832E+00  0.00000000E+00  0.00000000E+00  0.00000000E+00 -8.29223884E-01
  0.00000000E+00  0.00000000E+00  0.00000000E+00  2.67665534E-01  0.00000000E+00
  0.00000000E+00  0.00000000E+00  0.00000000E+00  0.00000000E+00  0.00000000E+00
  0.00000000E+00  0.00000000E+00 -1.32458544E+00  0.00000000E+00  0.00000000E+00
  0.00000000E+00  1.56189832E+00  0.00000000E+00  0.00000000E+00  0.00000000E+00
 -8.29223884E-01  0.00000000E+00  0.00000000E+00  0.00000000E+00  2.67665534E-01
  0.00000000E+00  0.00000000E+00  0.00000000E+00  0.00000000E+00  0.00000000E+00
  0.00000000E+00  0.00000000E+00 -2.02391704E+00  2.16141047E+00  0.00000000E+00
  0.00000000E+00  0.00000000E+00 -4.09046498E-01  0.00000000E+00  0.00000000E+00
  0.00000000E+00  3.23850042E-01  0.00000000E+00  0.00000000E+00  0.00000000E+00
 -1.14779121E-01  0.00000000E+00  0.00000000E+00  0.00000000E+00  1.38576661E-17
  0.00000000E+00  0.00000000E+00  3.05954874E-17  0.00000000E+00
Orthonormal basis                          R   N=         484
  2.34500310E-01  2.51032831E-01  0.00000000E+00  0.00000000E+00  0.00000000E+00
  3.16628792E-01  0.00000000E+00  0.00000000E+00  0.00000000E+00  3.12562189E-01
  0.00000000E+00  0.00000000E+00  0.00000000E+00  2.45378104E-01  0.00000000E+00
  0.00000000E+00  0.00000000E+00  8.21350379E-18  0.00000000E+00  0.00000000E+00
  1.64270076E-17  0.00000000E+00  4.47791800E-01  4.32246117E-01  0.00000000E+00
  0.00000000E+00  0.00000000E+00 -9.34438641E-02  0.00000000E+00  0.00000000E+00
  0.00000000E+00 -3.13112702E-01  0.00000000E+00  0.00000000E+00  0.00000000E+00
 -3.50728413E-01  0.00000000E+00  0.00000000E+00  0.00000000E+00 -3.13484455E-17
  0.00000000E+00  0.00000000E+00 -6.26968910E-17  0.00000000E+00  3.94756804E-30
 -8.70637385E-30  0.00000000E+00  0.00000000E+00  0.00000000E+00  2.45218762E-29
  0.00000000E+00  0.00000000E+00  0.00000000E+00 -3.74942061E-29  0.00000000E+00
  0.00000000E+00  0.00000000E+00  2.12552944E-29  0.00000000E+00  0.00000000E+00
  0.00000000E+00  8.94427191E-01  0.00000000E+00  0.00000000E+00 -4.47213595E-01
  0.00000000E+00  7.90935510E-17  6.82727995E-17  0.00000000E+00  0.00000000E+00
  0.00000000E+00 -1.60281548E-16  0.00000000E+00  0.00000000E+00  0.00000000E+00
 -1.18418330E-16  0.00000000E+00  0.00000000E+00  0.00000000E+00  1.26691888E-16
  0.00000000E+00  0.00000000E+00  0.00000000E+00  4.47213595E-01  0.00000000E+00
  0.00000000E+00  8.94427191E-01  0.00000000E+00 -3.25846947E-01 -1.31206246E-01
  0.00000000E+00  0.00000000E+00  0.00000000E+00  9.59027873E-01  0.00000000E+00
  0.00000000E+00  0.00000000E+00  1.08563778E-01  0.00000000E+00  0.00000000E+00
  0.00000000E+00 -9.30158314E-01  0.00000000E+00  0.00000000E+00  0.00000000E+00
  1.37930956E-16  0.00000000E+00  0.00000000E+00  2.75861912E-16  0.00000000E+00
  1.84976794E+00 -1.83528458E+00  0.00000000E+00  0.00000000E+00  0.00000000E+00
 -3.26846453E-01  0.00000000E+00  0.00000000E+00  0.00000000E+00  9.04466787E-01
  0.00000000E+00  0.00000000E+00  0.00000000E+00 -6.20542711E-01  0.00000000E+00
  0.00000000E+00  0.00000000E+00  3.92993035E-17  0.00000000E+00  0.00000000E+00
  7.85986070E-17  0.00000000E+00 -8.15423007E-01  1.16763073E+00  0.00000000E+00
  0.00000000E+00  0.00000000E+00 -1.71803447E+00  0.00000000E+00  0.00000000E+00
  0.00000000E+00  2.48256861E+00  0.00000000E+00  0.00000000E+00  0.00000000E+00
 -1.36065360E+00  0.00000000E+00  0.00000000E+00  0.00000000E+00  8.21131481E-17
  0.00000000E+00  0.00000000E+00  1.64226296E-16  0.00000000E+00  0.00000000E+00
  0.00000000E+00  0.00000000E+00  0.00000000E+00  0.00000000E+00  0.00000000E+00
  0.00000000E+00  0.00000000E+00  0.00000000E+00  0.00000000E+00  0.00000000E+00
  0.00000000E+00  0.00000000E+00  0.00000000E+00  0.00000000E+00  0.00000000E+00
  0.00000000E+00  0.00000000E+00  0.00000000E+00  0.00000000E+00  0.00000000E+00
  1.00000000E+00  0.00000000E+00  0.00000000E+00  0.00000000E+00  0.00000000E+00
  0.00000000E+00  0.00000000E+00  0.00000000E+00  0.00000000E+00  0.00000000E+00
  0.00000000E+00  0.00000000E+00  0.00000000E+00  0.00000000E+00  0.00000000E+00
  0.00000000E+00  0.00000000E+00  0.00000000E+00  0.00000000E+00  1.00000000E+00
  0.00000000E+00  0.00000000E+00  0.00000000E+00  0.00000000E+00  0.00000000E+00
  0.00000000E+00  0.00000000E+00  0.00000000E+00  0.00000000E+00  0.00000000E+00
  0.00000000E+00  0.00000000E+00  0.00000000E+00  0.00000000E+00  0.00000000E+00
  0.00000000E+00  0.00000000E+00  0.00000000E+00  0.00000000E+00  0.00000000E+00
  0.00000000E+00  0.00000000E+00  1.00000000E+00  0.00000000E+00  0.00000000E+00
  0.00000000E+00  0.00000000E+00  0.00000000E+00  0.00000000E+00  2.67356255E-01
  0.00000000E+00  0.00000000E+00  0.00000000E+00  3.79771107E-01  0.00000000E+00
  0.00000000E+00  0.00000000E+00  3.84495861E-01  0.00000000E+00  0.00000000E+00
  0.00000000E+00  2.77500970E-01  0.00000000E+00  0.00000000E+00  0.00000000E+00
  0.00000000E+00  0.00000000E+00  0.00000000E+00  0.00000000E+00  0.00000000E+00
  0.00000000E+00  5.92090527E-01  0.00000000E+00  0.00000000E+00  0.00000000E+00
  3.04840631E-01  0.00000000E+00  0.00000000E+00  0.00000000E+00 -2.96821000E-01