fubar                                                                   
SP        RPBE1PBE                                                    6-311+G(d,p)        
Number of atoms                            I                1
Info1-9                                    I   N=           9
          11          10           0           0           0         110
           1          18       -1302
Full Title                                 C   N=           1
fubar       
Route                                      C   N=           3
#PBE1PBE/6-311+G(d,p) scf=tight     
Charge                                     I               -1
Multiplicity                               I                1
Number of electrons                        I               10
Number of alpha electrons                  I                5
Number of beta electrons                   I                5
Number of basis functions                  I               22
Number of independent functions            I               22
Number of point charges in /Mol/           I                0
Number of translation vectors              I                0
Atomic numbers                             I   N=           1
           9
Nuclear charges                            R   N=           1
  9.00000000E+00
Current cartesian coordinates              R   N=           3
  0.00000000E+00  0.00000000E+00  0.00000000E+00
Number of symbols in /Mol/                 I                0
Int Atom Types                             I   N=           1
           0
Force Field                                I                0
Atom Types                                 C   N=           1
            
MM charges                                 R   N=           1
  0.00000000E+00
Integer atomic weights                     I   N=           1
          19
Real atomic weights                        R   N=           1
  1.89984032E+01
Atom fragment info                         I   N=           1
           0
Atom residue num                           I   N=           1
           0
Nuclear spins                              I   N=           1
           1
Nuclear ZEff                               R   N=           1
 -6.75000000E+00
Nuclear ZNuc                               R   N=           1
  9.00000000E+00
Nuclear QMom                               R   N=           1
  0.00000000E+00
Nuclear GFac                               R   N=           1
  2.62886700E+00
MicOpt                                     I   N=           1
          -1
Number of residues                         I                0
Number of secondary structures             I                0
SymInf integers                            I   N=          26
           1           8           1           1           1           1
          -1          -1          -1           1          -1          -1
          -1           1          -1          -1          -1          -1
           1           1           1          -1           1           1
           1          -1
RotTr to input orientation                 R   N=          12
  0.00000000E+00  0.00000000E+00 -1.00000000E+00  0.00000000E+00  1.00000000E+00
  0.00000000E+00  1.00000000E+00  0.00000000E+00  0.00000000E+00  0.00000000E+00
  0.00000000E+00  0.00000000E+00
Number of contracted shells                I                6
Number of primitive shells                 I               13
Pure/Cartesian d shells                    I                0
Pure/Cartesian f shells                    I                0
Highest angular momentum                   I                2
Largest degree of contraction              I                6
Shell types                                I   N=           6
           0          -1          -1          -1          -1          -2
Number of primitives per shell             I   N=           6
           6           3           1           1           1           1
Shell to atom map                          I   N=           6
           1           1           1           1           1           1
Primitive exponents                        R   N=          13
  1.14271000E+04  1.72235000E+03  3.95746000E+02  1.15139000E+02  3.36026000E+01
  4.91901000E+00  5.54441000E+01  1.26323000E+01  3.71756000E+00  1.16545000E+00
  3.21892000E-01  1.07600000E-01  1.75000000E+00
Contraction coefficients                   R   N=          13
  1.80093016E-03  1.37419012E-02  6.81334059E-02  2.33325020E-01  5.89086051E-01
  2.99505026E-01  1.14536016E-01  9.20512125E-01 -3.37804046E-03  1.00000000E+00
  1.00000000E+00  1.00000000E+00  1.00000000E+00
P(S=P) Contraction coefficients            R   N=          13
  0.00000000E+00  0.00000000E+00  0.00000000E+00  0.00000000E+00  0.00000000E+00
  0.00000000E+00  3.54608874E-02  2.37450915E-01  8.20457708E-01  1.00000000E+00
  1.00000000E+00  1.00000000E+00  0.00000000E+00
Coordinates of each shell                  R   N=          18
  0.00000000E+00  0.00000000E+00  0.00000000E+00  0.00000000E+00  0.00000000E+00
  0.00000000E+00  0.00000000E+00  0.00000000E+00  0.00000000E+00  0.00000000E+00
  0.00000000E+00  0.00000000E+00  0.00000000E+00  0.00000000E+00  0.00000000E+00
  0.00000000E+00  0.00000000E+00  0.00000000E+00
Num ILSW                                   I              100
ILSW                                       I   N=         100
           0           0           0           0           2           0
           0           0           0           0        1009          -1
           5           0           0           0           0           0
           0           0           0           0           0           0
           1           0           0           0           0           0
           0           0      100000           0          -1           0
           0           0           0           0           0           0
           0           0           0           1           0           0
           0 -2000000000           1           0           0           0
           0           0           4          52           0           0
           0           0          13           0           0           0
           0           0           0           1           0           1
           0           0           0           0           0           0
           0           0           0           0           0           0
           0           0           0           0           0           0
           0           0           0           0           0           0
           0           0           0           0
Num RLSW                                   I               52
RLSW                                       R   N=          52
  7.50000000E-01  7.50000000E-01  1.00000000E+00  1.00000000E+00  2.50000000E-01
  0.00000000E+00  0.00000000E+00  1.00000000E+00  0.00000000E+00  0.00000000E+00
  0.00000000E+00  0.00000000E+00  1.00000000E+00  0.00000000E+00  0.00000000E+00
  0.00000000E+00  0.00000000E+00  1.00000000E+00  0.00000000E+00  0.00000000E+00
  0.00000000E+00  0.00000000E+00  1.00000000E+00  0.00000000E+00  0.00000000E+00
  0.00000000E+00  0.00000000E+00  1.00000000E+00  0.00000000E+00  0.00000000E+00
  0.00000000E+00  0.00000000E+00  1.00000000E+00  0.00000000E+00  0.00000000E+00
  0.00000000E+00  0.00000000E+00  0.00000000E+00  1.00000000E+00  1.00000000E+00
  0.00000000E+00  1.00000000E+00  0.00000000E+00  0.00000000E+00  0.00000000E+00
  0.00000000E+00  0.00000000E+00  0.00000000E+00  0.00000000E+00  0.00000000E+00
  0.00000000E+00  0.00000000E+00
MxBond                                     I                1
NBond                                      I   N=           1
           0
IBond                                      I   N=           1
           0
RBond                                      R   N=           1
  0.00000000E+00
Virial Ratio                               R      2.002057963521704E+00
SCF Energy                                 R     -9.978418304592680E+01
Total Energy                               R     -9.978418304592680E+01
RMS Density                                R      1.649333164869575E-09
Job Status                                 I                1
Nuclear derivative order                   I                0
External E-field                           R   N=          35
  0.00000000E+00  0.00000000E+00  0.00000000E+00  0.00000000E+00  0.00000000E+00
  0.00000000E+00  0.00000000E+00  0.00000000E+00  0.00000000E+00  0.00000000E+00
  0.00000000E+00  0.00000000E+00  0.00000000E+00  0.00000000E+00  0.00000000E+00
  0.00000000E+00  0.00000000E+00  0.00000000E+00  0.00000000E+00  0.00000000E+00
  0.00000000E+00  0.00000000E+00  0.00000000E+00  0.00000000E+00  0.00000000E+00
  0.00000000E+00  0.00000000E+00  0.00000000E+00  0.00000000E+00  0.00000000E+00
  0.00000000E+00  0.00000000E+00  0.00000000E+00  0.00000000E+00  0.00000000E+00
IOpCl                                      I                0
IROHF                                      I                0
Alpha Orbital Energies                     R   N=          22
 -2.43104061E+01 -7.20978990E-01  5.01172210E-03  5.01172210E-03  5.01172210E-03
  4.23040022E-01  4.77827393E-01  4.77827393E-01  4.77827393E-01  1.64896254E+00
  1.64896254E+00  1.64896254E+00  1.95184610E+00  4.24702732E+00  4.24702732E+00
  4.24702732E+00  4.24702732E+00  4.24702732E+00  6.72836888E+00  6.72836888E+00
  6.72836888E+00  6.72750443E+01
Alpha MO coefficients                      R   N=         484
  5.48058783E-01  4.71866064E-01  0.00000000E+00  0.00000000E+00  0.00000000E+00
  1.06358396E-02  0.00000000E+00  0.00000000E+00  0.00000000E+00 -4.46654310E-03
  0.00000000E+00  0.00000000E+00  0.00000000E+00  1.71458089E-03  0.00000000E+00
  0.00000000E+00  0.00000000E+00  4.62431186E-16  0.00000000E+00  0.00000000E+00
 -4.11353202E-16  0.00000000E+00 -1.27626388E-01 -2.07664268E-01  0.00000000E+00
  0.00000000E+00  0.00000000E+00  6.17735435E-01  0.00000000E+00  0.00000000E+00
  0.00000000E+00  4.86905145E-01  0.00000000E+00  0.00000000E+00  0.00000000E+00
  2.79916553E-02  0.00000000E+00  0.00000000E+00  0.00000000E+00 -5.43932527E-17
  0.00000000E+00  0.00000000E+00 -3.67251783E-17  0.00000000E+00  0.00000000E+00
  0.00000000E+00  0.00000000E+00  0.00000000E+00  2.99418349E-01  0.00000000E+00
  0.00000000E+00  0.00000000E+00  4.34698707E-01  0.00000000E+00  0.00000000E+00
  0.00000000E+00  3.76067019E-01  0.00000000E+00  0.00000000E+00  0.00000000E+00
  1.87736298E-01  0.00000000E+00  0.00000000E+00  0.00000000E+00  0.00000000E+00
  0.00000000E+00  0.00000000E+00  0.00000000E+00  2.99418349E-01  0.00000000E+00
  0.00000000E+00  0.00000000E+00  4.34698707E-01  0.00000000E+00  0.00000000E+00
  0.00000000E+00  3.76067019E-01  0.00000000E+00  0.00000000E+00  0.00000000E+00
  1.87736298E-01  0.00000000E+00  0.00000000E+00  0.00000000E+00  0.00000000E+00
  0.00000000E+00  0.00000000E+00  0.00000000E+00  0.00000000E+00  0.00000000E+00
  0.00000000E+00  2.99418349E-01  0.00000000E+00  0.00000000E+00  0.00000000E+00
  4.34698707E-01  0.00000000E+00  0.00000000E+00  0.00000000E+00  3.76067019E-01
  0.00000000E+00  0.00000000E+00  0.00000000E+00  1.87736298E-01  0.00000000E+00
  0.00000000E+00  0.00000000E+00  0.00000000E+00  0.00000000E+00  0.00000000E+00
  3.80276214E-02  5.94557522E-02  0.00000000E+00  0.00000000E+00  0.00000000E+00
 -1.09129142E-01  0.00000000E+00  0.00000000E+00  0.00000000E+00 -1.04385022E+00
  0.00000000E+00  0.00000000E+00  0.00000000E+00  1.61180272E+00  0.00000000E+00
  0.00000000E+00  0.00000000E+00  7.14709174E-17  0.00000000E+00  0.00000000E+00
 -1.29834360E-16  0.00000000E+00  0.00000000E+00  0.00000000E+00  0.00000000E+00
  0.00000000E+00 -1.49756718E-01  0.00000000E+00  0.00000000E+00  0.00000000E+00
 -1.35614161E-01  0.00000000E+00  0.00000000E+00  0.00000000E+00 -6.02482096E-01
  0.00000000E+00  0.00000000E+00  0.00000000E+00  1.26637398E+00  0.00000000E+00
  0.00000000E+00  0.00000000E+00  0.00000000E+00  0.00000000E+00  0.00000000E+00
  0.00000000E+00  0.00000000E+00 -1.49756718E-01  0.00000000E+00  0.00000000E+00
  0.00000000E+00 -1.35614161E-01  0.00000000E+00  0.00000000E+00  0.00000000E+00
 -6.02482096E-01  0.00000000E+00  0.00000000E+00  0.00000000E+00  1.26637398E+00
  0.00000000E+00  0.00000000E+00  0.00000000E+00  0.00000000E+00  0.00000000E+00
  0.00000000E+00  0.00000000E+00  0.00000000E+00 -1.49756718E-01  0.00000000E+00
  0.00000000E+00  0.00000000E+00 -1.35614161E-01  0.00000000E+00  0.00000000E+00
  0.00000000E+00 -6.02482096E-01  0.00000000E+00  0.00000000E+00  0.00000000E+00
  1.26637398E+00  0.00000000E+00  0.00000000E+00  0.00000000E+00  0.00000000E+00
  0.00000000E+00  0.00000000E+00  0.00000000E+00  0.00000000E+00  0.00000000E+00
  0.00000000E+00 -2.69157683E-01  0.00000000E+00  0.00000000E+00  0.00000000E+00
 -8.31747733E-01  0.00000000E+00  0.00000000E+00  0.00000000E+00  1.61106924E+00
  0.00000000E+00  0.00000000E+00  0.00000000E+00 -7.49401651E-01  0.00000000E+00
  0.00000000E+00  0.00000000E+00  0.00000000E+00  0.00000000E+00  0.00000000E+00
  0.00000000E+00  0.00000000E+00 -2.69157683E-01  0.00000000E+00  0.00000000E+00
  0.00000000E+00 -8.31747733E-01  0.00000000E+00  0.00000000E+00  0.00000000E+00
  1.61106924E+00  0.00000000E+00  0.00000000E+00  0.00000000E+00 -7.49401651E-01
  0.00000000E+00  0.00000000E+00  0.00000000E+00  0.00000000E+00  0.00000000E+00
  0.00000000E+00  0.00000000E+00  0.00000000E+00  0.00000000E+00  0.00000000E+00
  0.00000000E+00 -2.69157683E-01  0.00000000E+00  0.00000000E+00  0.00000000E+00
 -8.31747733E-01  0.00000000E+00  0.00000000E+00  0.00000000E+00  1.61106924E+00
  0.00000000E+00  0.00000000E+00  0.00000000E+00 -7.49401651E-01  0.00000000E+00
  0.00000000E+00  0.00000000E+00  0.00000000E+00  0.00000000E+00  1.25580087E-01
  2.47721201E-01  0.00000000E+00  0.00000000E+00  0.00000000E+00 -1.77448423E+00
  0.00000000E+00  0.00000000E+00  0.00000000E+00  2.44630377E+00  0.00000000E+00
  0.00000000E+00  0.00000000E+00 -1.08276602E+00  0.00000000E+00  0.00000000E+00
  0.00000000E+00  1.29915436E-16  0.00000000E+00  0.00000000E+00  5.93885600E-16
  0.00000000E+00  0.00000000E+00  0.00000000E+00  0.00000000E+00  0.00000000E+00
  0.00000000E+00  0.00000000E+00  0.00000000E+00  0.00000000E+00  0.00000000E+00
  0.00000000E+00  0.00000000E+00  0.00000000E+00  0.00000000E+00  0.00000000E+00
  0.00000000E+00  0.00000000E+00  0.00000000E+00  0.00000000E+00  0.00000000E+00
  0.00000000E+00  0.00000000E+00  1.00000000E+00  0.00000000E+00  0.00000000E+00
  0.00000000E+00  0.00000000E+00  0.00000000E+00  0.00000000E+00  0.00000000E+00
  0.00000000E+00  0.00000000E+00  0.00000000E+00  0.00000000E+00  0.00000000E+00
  0.00000000E+00  0.00000000E+00  0.00000000E+00  0.00000000E+00  0.00000000E+00
  0.00000000E+00  1.00000000E+00  0.00000000E+00  0.00000000E+00  0.00000000E+00
  0.00000000E+00  0.00000000E+00  0.00000000E+00  0.00000000E+00  0.00000000E+00
  0.00000000E+00  0.00000000E+00  0.00000000E+00  0.00000000E+00  0.00000000E+00
  0.00000000E+00  0.00000000E+00  0.00000000E+00  0.00000000E+00  0.00000000E+00
  0.00000000E+00  0.00000000E+00  0.00000000E+00  0.00000000E+00  1.00000000E+00
  0.00000000E+00  0.00000000E+00  2.68049666E-17 -2.17885396E-17  0.00000000E+00
  0.00000000E+00  0.00000000E+00  4.82189331E-16  0.00000000E+00  0.00000000E+00
  0.00000000E+00 -1.05965518E-15  0.00000000E+00  0.00000000E+00  0.00000000E+00
  5.04311338E-16  0.00000000E+00  0.00000000E+00  0.00000000E+00  9.63763254E-01
  0.00000000E+00  0.00000000E+00 -2.66759050E-01  0.00000000E+00 -7.38967985E-17
 -1.68715328E-16  0.00000000E+00  0.00000000E+00  0.00000000E+00  1.71169311E-15
  0.00000000E+00  0.00000000E+00  0.00000000E+00 -3.54658433E-15  0.00000000E+00
  0.00000000E+00  0.00000000E+00  1.87251419E-15  0.00000000E+00  0.00000000E+00
  0.00000000E+00  2.66759050E-01  0.00000000E+00  0.00000000E+00  9.63763254E-01
  0.00000000E+00  0.00000000E+00  0.00000000E+00  0.00000000E+00 -1.26110107E+00
  0.00000000E+00  0.00000000E+00  0.00000000E+00  1.48716067E+00  0.00000000E+00
  0.00000000E+00  0.00000000E+00 -8.22812152E-01  0.00000000E+00  0.00000000E+00
  0.00000000E+00  3.04190224E-01  0.00000000E+00  0.00000000E+00  0.00000000E+00
  0.00000000E+00  0.00000000E+00  0.00000000E+00  0.00000000E+00  0.00000000E+00
 -1.26110107E+00  0.00000000E+00  0.00000000E+00  0.00000000E+00  1.48716067E+00
  0.00000000E+00  0.00000000E+00  0.00000000E+00 -8.22812152E-01  0.00000000E+00
  0.00000000E+00  0.00000000E+00  3.04190224E-01  0.00000000E+00  0.00000000E+00
  0.00000000E+00  0.00000000E+00  0.00000000E+00  0.00000000E+00  0.00000000E+00
  0.00000000E+00  0.00000000E+00  0.00000000E+00  0.00000000E+00 -1.26110107E+00
  0.00000000E+00  0.00000000E+00  0.00000000E+00  1.48716067E+00  0.00000000E+00
  0.00000000E+00  0.00000000E+00 -8.22812152E-01  0.00000000E+00  0.00000000E+00
  0.00000000E+00  3.04190224E-01  0.00000000E+00  0.00000000E+00  0.00000000E+00
  0.00000000E+00  0.00000000E+00 -2.32566194E+00  2.39282784E+00  0.00000000E+00
  0.00000000E+00  0.00000000E+00 -1.96013799E-01  0.00000000E+00  0.00000000E+00
  0.00000000E+00  1.94269620E-01  0.00000000E+00  0.00000000E+00  0.00000000E+00
 -7.95907341E-02  0.00000000E+00  0.00000000E+00  0.00000000E+00  2.96223363E-17
  0.00000000E+00  0.00000000E+00 -8.58820222E-18  0.00000000E+00
Orthonormal basis                          R   N=         484
  2.43201941E-01  2.48566728E-01  0.00000000E+00  0.00000000E+00  0.00000000E+00
  3.11909684E-01  0.00000000E+00  0.00000000E+00  0.00000000E+00  3.08248900E-01
  0.00000000E+00  0.00000000E+00  0.00000000E+00  2.48713467E-01  0.00000000E+00
  0.00000000E+00  0.00000000E+00 -1.86450083E-17  0.00000000E+00  0.00000000E+00
 -1.65744237E-17  0.00000000E+00  4.33756576E-01  4.30075379E-01  0.00000000E+00
  0.00000000E+00  0.00000000E+00 -8.69081506E-02  0.00000000E+00  0.00000000E+00
  0.00000000E+00 -3.18143230E-01  0.00000000E+00  0.00000000E+00  0.00000000E+00
 -3.50676936E-01  0.00000000E+00  0.00000000E+00  0.00000000E+00  5.04247227E-17
  0.00000000E+00  0.00000000E+00  5.95485801E-17  0.00000000E+00 -6.77808663E-17
 -6.88289112E-17  0.00000000E+00  0.00000000E+00  0.00000000E+00  1.36908280E-16
  0.00000000E+00  0.00000000E+00  0.00000000E+00  1.29363799E-16  0.00000000E+00
  0.00000000E+00  0.00000000E+00 -9.95676482E-17  0.00000000E+00  0.00000000E+00
  0.00000000E+00  5.93254726E-01  0.00000000E+00  0.00000000E+00  8.05014801E-01
  0.00000000E+00 -3.41496546E-29 -1.12034312E-17  0.00000000E+00  0.00000000E+00
  0.00000000E+00  2.47945679E-17  0.00000000E+00  0.00000000E+00  0.00000000E+00
  1.74212799E-17  0.00000000E+00  0.00000000E+00  0.00000000E+00 -2.06756134E-17
  0.00000000E+00  0.00000000E+00  0.00000000E+00  8.05014801E-01  0.00000000E+00
  0.00000000E+00 -5.93254726E-01  0.00000000E+00 -2.80960915E-01 -1.92850672E-01
  0.00000000E+00  0.00000000E+00  0.00000000E+00  1.02585685E+00  0.00000000E+00
  0.00000000E+00  0.00000000E+00  5.78929334E-02  0.00000000E+00  0.00000000E+00
  0.00000000E+00 -8.90798636E-01  0.00000000E+00  0.00000000E+00  0.00000000E+00
 -1.95830849E-16  0.00000000E+00  0.00000000E+00 -1.86469796E-16  0.00000000E+00
  2.00973273E+00 -1.90689255E+00  0.00000000E+00  0.00000000E+00  0.00000000E+00
 -6.29485453E-01  0.00000000E+00  0.00000000E+00  0.00000000E+00  1.28490118E+00
  0.00000000E+00  0.00000000E+00  0.00000000E+00 -8.62468877E-01  0.00000000E+00
  0.00000000E+00  0.00000000E+00 -1.35125723E-16  0.00000000E+00  0.00000000E+00
 -1.05866146E-16  0.00000000E+00 -1.17359287E+00  1.46154954E+00  0.00000000E+00
  0.00000000E+00  0.00000000E+00 -1.42385398E+00  0.00000000E+00  0.00000000E+00
  0.00000000E+00  2.34484702E+00  0.00000000E+00  0.00000000E+00  0.00000000E+00
 -1.43359825E+00  0.00000000E+00  0.00000000E+00  0.00000000E+00 -1.50344135E-16
  0.00000000E+00  0.00000000E+00 -1.72298177E-16  0.00000000E+00  0.00000000E+00
  0.00000000E+00  0.00000000E+00  0.00000000E+00  0.00000000E+00  0.00000000E+00
  0.00000000E+00  0.00000000E+00  0.00000000E+00  0.00000000E+00  0.00000000E+00
  0.00000000E+00  0.00000000E+00  0.00000000E+00  0.00000000E+00  0.00000000E+00
  0.00000000E+00  0.00000000E+00  0.00000000E+00  0.00000000E+00  0.00000000E+00
  1.00000000E+00  0.00000000E+00  0.00000000E+00  0.00000000E+00  0.00000000E+00
  0.00000000E+00  0.00000000E+00  0.00000000E+00  0.00000000E+00  0.00000000E+00
  0.00000000E+00  0.00000000E+00  0.00000000E+00  0.00000000E+00  0.00000000E+00
  0.00000000E+00  0.00000000E+00  0.00000000E+00  0.00000000E+00  1.00000000E+00
  0.00000000E+00  0.00000000E+00  0.00000000E+00  0.00000000E+00  0.00000000E+00
  0.00000000E+00  0.00000000E+00  0.00000000E+00  0.00000000E+00  0.00000000E+00
  0.00000000E+00  0.00000000E+00  0.00000000E+00  0.00000000E+00  0.00000000E+00
  0.00000000E+00  0.00000000E+00  0.00000000E+00  0.00000000E+00  0.00000000E+00
  0.00000000E+00  0.00000000E+00  1.00000000E+00  0.00000000E+00  0.00000000E+00
  0.00000000E+00  0.00000000E+00  0.00000000E+00  0.00000000E+00  2.54113776E-01
  0.00000000E+00  0.00000000E+00  0.00000000E+00  3.72149011E-01  0.00000000E+00
  0.00000000E+00  0.00000000E+00  3.90572601E-01  0.00000000E+00  0.00000000E+00
  0.00000000E+00  2.99308236E-01  0.00000000E+00  0.00000000E+00  0.00000000E+00
  0.00000000E+00  0.00000000E+00  0.00000000E+00  0.00000000E+00  0.00000000E+00
  0.00000000E+00  6.04158525E-01  0.00000000E+00  0.00000000E+00  0.00000000E+00
  3.26994324E-01  0.00000000E+00  0.00000000E+00  0.00000000E+00 -2.97276902E-01
  0.00000000E+00  0.00000000E+00  0.00000000E+00 -5.31583788E-01  0.00000000E+00
  0.00000000E+00  0.00000000E+00  0.00000000E+00  0.00000000E+00  0.00000000E+00
  0.00000000E+00  0.00000000E+00  0.00000000E+00  8.99380786E-01  0.00000000E+00
  0.00000000E+00  0.00000000E+00 -7.63597481E-01  0.00000000E+00  0.00000000E+00
  0.00000000E+00 -4.91631082E-01  0.00000000E+00  0.00000000E+00  0.00000000E+00
  8.27389965E-01  0.00000000E+00  0.00000000E+00  0.00000000E+00  0.00000000E+00
  0.00000000E+00  0.00000000E+00  0.00000000E+00  0.00000000E+00  0.00000000E+00
  7.32415909E-01  0.00000000E+00  0.00000000E+00  0.00000000E+00 -1.51072963E+00
  0.00000000E+00  0.00000000E+00  0.00000000E+00  1.81503536E+00  0.00000000E+00
  0.00000000E+00  0.00000000E+00 -1.11190899E+00  0.00000000E+00  0.00000000E+00
  0.00000000E+00  0.00000000E+00  0.00000000E+00  0.00000000E+00  0.00000000E+00
  0.00000000E+00  2.54113776E-01  0.00000000E+00  0.00000000E+00  0.00000000E+00
  3.72149011E-01  0.00000000E+00  0.00000000E+00  0.00000000E+00  3.90572601E-01
  0.00000000E+00  0.00000000E+00  0.00000000E+00  2.99308236E-01  0.00000000E+00
  0.00000000E+00  0.00000000E+00  0.00000000E+00  0.00000000E+00  0.00000000E+00
  0.00000000E+00  0.00000000E+00  0.00000000E+00  6.04158525E-01  0.00000000E+00
  0.00000000E+00  0.00000000E+00  3.26994324E-01  0.00000000E+00  0.00000000E+00
  0.00000000E+00 -2.97276902E-01  0.00000000E+00  0.00000000E+00  0.00000000E+00
 -5.31583788E-01  0.00000000E+00  0.00000000E+00  0.00000000E+00  0.00000000E+00
  0.00000000E+00  0.00000000E+00  0.00000000E+00  0.00000000E+00  0.00000000E+00
  8.99380786E-01  0.00000000E+00  0.00000000E+00  0.00000000E+00 -7.63597481E-01
  0.00000000E+00  0.00000000E+00  0.00000000E+00 -4.91631082E-01  0.00000000E+00
  0.00000000E+00  0.00000000E+00  8.27389965E-01  0.00000000E+00  0.00000000E+00
  0.00000000E+00  0.00000000E+00  0.00000000E+00  0.00000000E+00  0.00000000E+00
  0.00000000E+00  0.00000000E+00  7.32415909E-01  0.00000000E+00  0.00000000E+00
  0.00000000E+00 -1.51072963E+00  0.00000000E+00  0.00000000E+00  0.00000000E+00
  1.81503536E+00  0.00000000E+00  0.00000000E+00  0.00000000E+00 -1.11190899E+00
  0.00000000E+00  0.00000000E+00  0.00000000E+00  0.00000000E+00  0.00000000E+00
  0.00000000E+00  0.00000000E+00  0.00000000E+00  2.54113776E-01  0.00000000E+00
  0.00000000E+00  0.00000000E+00  3.72149011E-01  0.00000000E+00  0.00000000E+00
  0.00000000E+00  3.90572601E-01  0.00000000E+00  0.00000000E+00  0.00000000E+00
  2.99308236E-01  0.00000000E+00  0.00000000E+00  0.00000000E+00  0.00000000E+00
  0.00000000E+00  0.00000000E+00  0.00000000E+00  0.00000000E+00  0.00000000E+00
  6.04158525E-01  0.00000000E+00  0.00000000E+00  0.00000000E+00  3.26994324E-01
  0.00000000E+00  0.00000000E+00  0.00000000E+00 -2.97276902E-01  0.00000000E+00
  0.00000000E+00  0.00000000E+00 -5.31583788E-01  0.00000000E+00  0.00000000E+00
  0.00000000E+00  0.00000000E+00  0.00000000E+00  0.00000000E+00  0.00000000E+00
  0.00000000E+00  0.00000000E+00  8.99380786E-01  0.00000000E+00  0.00000000E+00
  0.00000000E+00 -7.63597481E-01  0.00000000E+00  0.00000000E+00  0.00000000E+00
 -4.91631082E-01  0.00000000E+00  0.00000000E+00  0.00000000E+00  8.27389965E-01
  0.00000000E+00  0.00000000E+00  0.00000000E+00  0.00000000E+00  0.00000000E+00
  0.00000000E+00  0.00000000E+00  0.00000000E+00  0.00000000E+00  7.32415909E-01
  0.00000000E+00  0.00000000E+00  0.00000000E+00 -1.51072963E+00  0.00000000E+00
  0.00000000E+00  0.00000000E+00  1.81503536E+00  0.00000000E+00  0.00000000E+00
  0.00000000E+00 -1.11190899E+00  0.00000000E+00  0.00000000E+00  0.00000000E+00
  0.00000000E+00  0.00000000E+00  0.00000000E+00  0.00000000E+00
Total SCF Density                          R   N=         253
  6.33313849E-01  5.70227562E-01  5.31564060E-01  0.00000000E+00  0.00000000E+00
  1.79302696E-01  0.00000000E+00  0.00000000E+00  5.13581319E-33  1.79302696E-01
  0.00000000E+00  0.00000000E+00 -1.51608443E-19  1.51608443E-19  1.79302696E-01
 -1.46020554E-01 -2.46525770E-01  0.00000000E+00  0.00000000E+00  0.00000000E+00
  7.63420377E-01  0.00000000E+00  0.00000000E+00  2.60313538E-01 -1.56642302E-32
 -2.20106732E-19  0.00000000E+00  3.77925931E-01  0.00000000E+00  0.00000000E+00
 -1.56642302E-32  2.60313538E-01  2.20106732E-19  0.00000000E+00 -5.67507357E-32
  3.77925931E-01  0.00000000E+00  0.00000000E+00 -2.20106732E-19  2.20106732E-19
  2.60313538E-01  0.00000000E+00 -3.19553267E-19  3.19553267E-19  3.77925931E-01
 -1.29179746E-01 -2.06440821E-01  0.00000000E+00  0.00000000E+00  0.00000000E+00
  6.01462112E-01  0.00000000E+00  0.00000000E+00  0.00000000E+00  4.74193141E-01
  0.00000000E+00  0.00000000E+00  2.25202732E-01  1.82321368E-32 -1.90418975E-19
  0.00000000E+00  3.26951693E-01  0.00000000E+00 -2.76452270E-19  0.00000000E+00
  2.82852805E-01  0.00000000E+00  0.00000000E+00  1.87457181E-32  2.25202732E-01
  1.90418975E-19  0.00000000E+00  0.00000000E+00  3.26951693E-01  2.76452270E-19
  0.00000000E+00  4.05729242E-32  2.82852805E-01  0.00000000E+00  0.00000000E+00
 -1.90418975E-19  1.90418975E-19  2.25202732E-01  0.00000000E+00 -2.76452270E-19
  2.76452270E-19  3.26951693E-01  0.00000000E+00 -2.39164689E-19  2.39164689E-19
  2.82852805E-01 -5.26556546E-03 -1.00076281E-02  0.00000000E+00  0.00000000E+00
  0.00000000E+00  3.46193467E-02  0.00000000E+00  0.00000000E+00  0.00000000E+00
  2.72432455E-02  0.00000000E+00  0.00000000E+00  0.00000000E+00  1.57294511E-03
  0.00000000E+00  0.00000000E+00  1.12423385E-01 -9.18026607E-33 -9.50589969E-20
  0.00000000E+00  1.63217452E-01 -2.79259842E-32 -1.38007651E-19  0.00000000E+00
  1.41202860E-01 -3.20988324E-33 -1.19393329E-19  0.00000000E+00  7.04898353E-02
  0.00000000E+00  0.00000000E+00 -8.66668475E-33  1.12423385E-01  9.50589969E-20
  0.00000000E+00 -2.79259842E-32  1.63217452E-01  1.38007651E-19  0.00000000E+00
 -2.56790659E-33  1.41202860E-01  1.19393329E-19  0.00000000E+00 -1.31605213E-32
  7.04898353E-02  0.00000000E+00  0.00000000E+00 -9.50589969E-20  9.50589969E-20
  1.12423385E-01  0.00000000E+00 -1.38007651E-19  1.38007651E-19  1.63217452E-01
  0.00000000E+00 -1.19393329E-19  1.19393329E-19  1.41202860E-01  0.00000000E+00
 -5.96023064E-20  5.96023064E-20  7.04898353E-02 -2.53366784E-32 -1.08708046E-32
  0.00000000E+00  0.00000000E+00  0.00000000E+00  1.75473617E-33  0.00000000E+00
  0.00000000E+00  0.00000000E+00  1.54609376E-33  0.00000000E+00  0.00000000E+00
  0.00000000E+00 -6.68725675E-36  0.00000000E+00  0.00000000E+00  0.00000000E+00
  3.87361423E-31  3.57202521E-33  3.02070225E-33  0.00000000E+00  0.00000000E+00
  0.00000000E+00  4.16463763E-34  0.00000000E+00  0.00000000E+00  0.00000000E+00
  2.42836071E-34  0.00000000E+00  0.00000000E+00  0.00000000E+00  2.70658461E-35
  0.00000000E+00  0.00000000E+00  0.00000000E+00  6.86495621E-48  1.79572657E-62
 -6.01304106E-33 -5.23575633E-33  0.00000000E+00  0.00000000E+00  0.00000000E+00
  2.55417755E-34  0.00000000E+00  0.00000000E+00  0.00000000E+00  3.40509566E-34
  0.00000000E+00  0.00000000E+00  0.00000000E+00 -1.77784281E-36  0.00000000E+00
  0.00000000E+00  0.00000000E+00 -5.91006602E-48  2.41889877E-63  3.03469508E-62
  1.18606525E-33  9.34026384E-33  0.00000000E+00  0.00000000E+00  0.00000000E+00
  3.11342128E-33  0.00000000E+00  0.00000000E+00  0.00000000E+00  1.18606525E-33
  0.00000000E+00  0.00000000E+00  0.00000000E+00  2.84933644E-34  0.00000000E+00
  0.00000000E+00  0.00000000E+00  2.18952885E-47 -7.20498918E-48 -5.25623241E-48
  3.87361423E-31  1.65899418E-32  1.41331136E-32  0.00000000E+00  0.00000000E+00
  0.00000000E+00  1.27621411E-33  0.00000000E+00  0.00000000E+00  0.00000000E+00
  6.12351795E-34  0.00000000E+00  0.00000000E+00  0.00000000E+00  9.55835019E-35
  0.00000000E+00  0.00000000E+00  0.00000000E+00  9.33974764E-48  1.77373040E-64
 -1.32708925E-64  3.13766613E-47  2.37693777E-62
Mulliken Charges                           R   N=           1
 -1.00000000E+00
ONIOM Charges                              I   N=          16
          -1           0           0           0           0           0
           0           0           0           0           0           0
           0           0           0           0
ONIOM Multiplicities                       I   N=          16
           1           0           0           0           0           0
           0           0           0           0           0           0
           0           0           0           0