fubar                                                                   
SP        UPBE1PBE                                                    6-311+G(d,p)        
Number of atoms                            I                1
Info1-9                                    I   N=           9
          11          10           0           0           0         110
           1          18       -1302
Full Title                                 C   N=           1
fubar       
Route                                      C   N=           3
#PBE1PBE/6-311+G(d,p) scf=tight     
Charge                                     I                3
Multiplicity                               I                3
Number of electrons                        I               32
Number of alpha electrons                  I               17
Number of beta electrons                   I               15
Number of basis functions                  I               48
Number of independent functions            I               48
Number of point charges in /Mol/           I                0
Number of translation vectors              I                0
Atomic numbers                             I   N=           1
          35
Nuclear charges                            R   N=           1
  3.50000000E+01
Current cartesian coordinates              R   N=           3
  0.00000000E+00  0.00000000E+00  0.00000000E+00
Number of symbols in /Mol/                 I                0
Int Atom Types                             I   N=           1
           0
Force Field                                I                0
Atom Types                                 C   N=           1
            
MM charges                                 R   N=           1
  0.00000000E+00
Integer atomic weights                     I   N=           1
          79
Real atomic weights                        R   N=           1
  7.89183361E+01
Atom fragment info                         I   N=           1
           0
Atom residue num                           I   N=           1
           0
Nuclear spins                              I   N=           1
           3
Nuclear ZEff                               R   N=           1
 -2.45000000E+01
Nuclear ZNuc                               R   N=           1
  3.50000000E+01
Nuclear QMom                               R   N=           1
  3.13000000E+01
Nuclear GFac                               R   N=           1
  2.10639900E+00
MicOpt                                     I   N=           1
          -1
Number of residues                         I                0
Number of secondary structures             I                0
SymInf integers                            I   N=          26
           1           8           1           1           1           1
          -1          -1          -1           1          -1          -1
          -1           1          -1          -1          -1          -1
           1           1           1          -1           1           1
           1          -1
RotTr to input orientation                 R   N=          12
  0.00000000E+00  0.00000000E+00 -1.00000000E+00  0.00000000E+00  1.00000000E+00
  0.00000000E+00  1.00000000E+00  0.00000000E+00  0.00000000E+00  0.00000000E+00
  0.00000000E+00  0.00000000E+00
Number of contracted shells                I               19
Number of primitive shells                 I               35
Pure/Cartesian d shells                    I                0
Pure/Cartesian f shells                    I                0
Highest angular momentum                   I                2
Largest degree of contraction              I                6
Shell types                                I   N=          19
           0           0           0           0           0           0
           0           0          -1           1           1           1
           1           1           1           1          -2          -2
          -2
Number of primitives per shell             I   N=          19
           6           3           1           1           1           1
           1           1           1           3           3           3
           1           1           1           1           4           1
           1
Shell to atom map                          I   N=          19
           1           1           1           1           1           1
           1           1           1           1           1           1
           1           1           1           1           1           1
           1
Primitive exponents                        R   N=          35
  4.39700000E+05  6.60300000E+04  1.51400000E+04  4.31700000E+03  1.41400000E+03
  5.23900000E+02  5.23900000E+02  2.07700000E+02  8.65400000E+01  3.05200000E+01
  1.29800000E+01  4.41200000E+00  1.86200000E+00  3.93200000E-01  1.40000000E-01
  3.50000000E-02  2.95700000E+03  7.00300000E+02  2.24600000E+02  8.25900000E+01
  3.31900000E+01  1.42000000E+01  1.42000000E+01  7.43800000E+00  3.52600000E+00
  1.59500000E+00  8.46200000E-01  3.18600000E-01  1.09600000E-01  1.34800000E+02
  3.63900000E+01  1.21600000E+01  4.34100000E+00  1.53500000E+00  4.51000000E-01
Contraction coefficients                   R   N=          35
  8.12983158E-04  6.28486980E-03  3.19193387E-02  1.28797332E-01  3.94591825E-01
  5.41288786E-01  1.83107648E-01  6.17625795E-01  2.53810600E-01  1.00000000E+00
  1.00000000E+00  1.00000000E+00  1.00000000E+00  1.00000000E+00  1.00000000E+00
  1.00000000E+00  2.22598927E-02  1.80199132E-01  8.62395844E-01  3.43987390E-01
  5.07081411E-01  2.58990506E-01  7.96539352E-02  3.73418448E-01  6.04929885E-01
  1.00000000E+00  1.00000000E+00  1.00000000E+00  1.00000000E+00  1.83093925E-02
  1.34995521E-01  4.26085864E-01  6.04279951E-01  1.00000000E+00  1.00000000E+00
P(S=P) Contraction coefficients            R   N=          35
  0.00000000E+00  0.00000000E+00  0.00000000E+00  0.00000000E+00  0.00000000E+00
  0.00000000E+00  0.00000000E+00  0.00000000E+00  0.00000000E+00  0.00000000E+00
  0.00000000E+00  0.00000000E+00  0.00000000E+00  0.00000000E+00  0.00000000E+00
  1.00000000E+00  0.00000000E+00  0.00000000E+00  0.00000000E+00  0.00000000E+00
  0.00000000E+00  0.00000000E+00  0.00000000E+00  0.00000000E+00  0.00000000E+00
  0.00000000E+00  0.00000000E+00  0.00000000E+00  0.00000000E+00  0.00000000E+00
  0.00000000E+00  0.00000000E+00  0.00000000E+00  0.00000000E+00  0.00000000E+00
Coordinates of each shell                  R   N=          57
  0.00000000E+00  0.00000000E+00  0.00000000E+00  0.00000000E+00  0.00000000E+00
  0.00000000E+00  0.00000000E+00  0.00000000E+00  0.00000000E+00  0.00000000E+00
  0.00000000E+00  0.00000000E+00  0.00000000E+00  0.00000000E+00  0.00000000E+00
  0.00000000E+00  0.00000000E+00  0.00000000E+00  0.00000000E+00  0.00000000E+00
  0.00000000E+00  0.00000000E+00  0.00000000E+00  0.00000000E+00  0.00000000E+00
  0.00000000E+00  0.00000000E+00  0.00000000E+00  0.00000000E+00  0.00000000E+00
  0.00000000E+00  0.00000000E+00  0.00000000E+00  0.00000000E+00  0.00000000E+00
  0.00000000E+00  0.00000000E+00  0.00000000E+00  0.00000000E+00  0.00000000E+00
  0.00000000E+00  0.00000000E+00  0.00000000E+00  0.00000000E+00  0.00000000E+00
  0.00000000E+00  0.00000000E+00  0.00000000E+00  0.00000000E+00  0.00000000E+00
  0.00000000E+00  0.00000000E+00  0.00000000E+00  0.00000000E+00  0.00000000E+00
  0.00000000E+00  0.00000000E+00
Num ILSW                                   I              100
ILSW                                       I   N=         100
           1           0           0           0           2           0
           0           0           0           0        1009          -1
           5           0           0           0           0           0
           0           0           0           0           0           0
           1           0           0           0           0           0
           0           0      100000           0          -1           0
           0           0           0           0           0           0
           0           0           0           1           0           0
           0 -2000000000           1           0           0           0
           0           1           4          52           0           0
           0           0          13           0           0           0
           0           0           0           1           0           1
           0           0           0           0           0           0
           0           0           0           0           0           0
           0           0           0           0           0           0
           0           0           0           0           0           0
           0           0           0           0
Num RLSW                                   I               52
RLSW                                       R   N=          52
  7.50000000E-01  7.50000000E-01  1.00000000E+00  1.00000000E+00  2.50000000E-01
  0.00000000E+00  0.00000000E+00  1.00000000E+00  0.00000000E+00  0.00000000E+00
  0.00000000E+00  0.00000000E+00  1.00000000E+00  0.00000000E+00  0.00000000E+00
  0.00000000E+00  0.00000000E+00  1.00000000E+00  0.00000000E+00  0.00000000E+00
  0.00000000E+00  0.00000000E+00  1.00000000E+00  0.00000000E+00  0.00000000E+00
  0.00000000E+00  0.00000000E+00  1.00000000E+00  0.00000000E+00  0.00000000E+00
  0.00000000E+00  0.00000000E+00  1.00000000E+00  0.00000000E+00  0.00000000E+00
  0.00000000E+00  0.00000000E+00  0.00000000E+00  1.00000000E+00  1.00000000E+00
  0.00000000E+00  1.00000000E+00  0.00000000E+00  0.00000000E+00  0.00000000E+00
  0.00000000E+00  0.00000000E+00  0.00000000E+00  0.00000000E+00  0.00000000E+00
  0.00000000E+00  0.00000000E+00
MxBond                                     I                1
NBond                                      I   N=           1
           0
IBond                                      I   N=           1
           0
RBond                                      R   N=           1
  0.00000000E+00
Virial Ratio                               R      2.001032466151345E+00
SCF Energy                                 R     -2.571261065530875E+03
Total Energy                               R     -2.571261065530875E+03
S**2                                       R      2.002298811159877E+00
S**2 after annihilation                    R      2.000000404151412E+00
RMS Density                                R      1.540178817285322E-09
Job Status                                 I                1
Nuclear derivative order                   I                0
External E-field                           R   N=          35
  0.00000000E+00  0.00000000E+00  0.00000000E+00  0.00000000E+00  0.00000000E+00
  0.00000000E+00  0.00000000E+00  0.00000000E+00  0.00000000E+00  0.00000000E+00
  0.00000000E+00  0.00000000E+00  0.00000000E+00  0.00000000E+00  0.00000000E+00
  0.00000000E+00  0.00000000E+00  0.00000000E+00  0.00000000E+00  0.00000000E+00
  0.00000000E+00  0.00000000E+00  0.00000000E+00  0.00000000E+00  0.00000000E+00
  0.00000000E+00  0.00000000E+00  0.00000000E+00  0.00000000E+00  0.00000000E+00
  0.00000000E+00  0.00000000E+00  0.00000000E+00  0.00000000E+00  0.00000000E+00
IOpCl                                      I                1
IROHF                                      I                0
Alpha Orbital Energies                     R   N=          48
 -4.84726356E+02 -6.41037675E+01 -5.78866146E+01 -5.78822445E+01 -5.78822445E+01
 -1.02256466E+01 -8.04080682E+00 -8.02346886E+00 -8.02346886E+00 -4.12060283E+00
 -4.11562646E+00 -4.11562646E+00 -4.09953571E+00 -4.09953571E+00 -2.07461071E+00
 -1.55948222E+00 -1.55948222E+00 -1.44240598E+00 -6.73386339E-01 -6.23189241E-01
 -6.23189241E-01 -6.15628733E-01 -6.15628733E-01 -6.04442203E-01 -5.44903320E-01
 -5.44903320E-01 -5.44574836E-01 -2.95916359E-01 -2.73669026E-01 -2.72389155E-01
 -2.72389155E-01  8.38278294E-01  8.40934657E-01  8.40934657E-01  2.78463717E+00
  2.78735798E+00  2.78735798E+00  2.80204890E+00  2.80204890E+00  5.05919131E+00
  6.19726617E+00  6.21273849E+00  6.21273849E+00  4.63879329E+01  2.88581031E+02
  2.88581031E+02  2.88581221E+02  1.01950401E+03
Beta Orbital Energies                      R   N=          48
 -4.84718759E+02 -6.40998072E+01 -5.78838783E+01 -5.78720637E+01 -5.78720637E+01
 -1.02139751E+01 -8.03605046E+00 -8.00384120E+00 -8.00384120E+00 -4.11326859E+00
 -4.10540709E+00 -4.10540709E+00 -4.08187039E+00 -4.08187039E+00 -1.95243242E+00
 -1.39642401E+00 -1.33554910E+00 -1.33554910E+00 -6.40086178E-01 -5.46592892E-01
 -5.34629147E-01 -5.34629147E-01 -5.26659107E-01 -5.08601176E-01 -5.08601176E-01
 -4.92662274E-01 -4.92662273E-01 -2.73932723E-01 -2.65349290E-01 -2.54188960E-01
 -2.54188960E-01  8.63517040E-01  9.06387620E-01  9.06387620E-01  2.80771652E+00
  2.81942408E+00  2.81942408E+00  2.85474205E+00  2.85474205E+00  5.09321547E+00
  6.21565111E+00  6.26240979E+00  6.26240979E+00  4.63992516E+01  2.88584685E+02
  2.88594089E+02  2.88594089E+02  1.01950998E+03
Alpha MO coefficients                      R   N=        2304
  3.90064606E-01  6.74227592E-01  8.73764468E-03 -2.17948124E-03  1.05268012E-03
 -5.13696009E-04  1.64620096E-04 -8.70287460E-05  2.17425768E-05  0.00000000E+00
  0.00000000E+00  0.00000000E+00  0.00000000E+00  0.00000000E+00  0.00000000E+00
  0.00000000E+00  0.00000000E+00  0.00000000E+00  0.00000000E+00  0.00000000E+00
  0.00000000E+00  0.00000000E+00  0.00000000E+00  0.00000000E+00  0.00000000E+00
  0.00000000E+00  0.00000000E+00  0.00000000E+00  0.00000000E+00  0.00000000E+00
  0.00000000E+00  0.00000000E+00  0.00000000E+00 -3.97581613E-07  0.00000000E+00
  0.00000000E+00  6.88631554E-07  0.00000000E+00  2.25725297E-07  0.00000000E+00
  0.00000000E+00 -3.90967684E-07  0.00000000E+00  4.67366217E-09  0.00000000E+00
  0.00000000E+00 -8.09502082E-09  0.00000000E+00 -1.28825120E-01 -3.77034770E-01
  6.30367093E-01  4.96823757E-01  4.78845817E-02 -9.57259650E-03  2.61783122E-03
 -1.37014395E-03  3.40065607E-04  0.00000000E+00  0.00000000E+00  0.00000000E+00
  0.00000000E+00  0.00000000E+00  0.00000000E+00  0.00000000E+00  0.00000000E+00
  0.00000000E+00  0.00000000E+00  0.00000000E+00  0.00000000E+00  0.00000000E+00
  0.00000000E+00  0.00000000E+00  0.00000000E+00  0.00000000E+00  0.00000000E+00
  0.00000000E+00  0.00000000E+00  0.00000000E+00  0.00000000E+00  0.00000000E+00
  0.00000000E+00 -4.59320145E-05  0.00000000E+00  0.00000000E+00  7.95565828E-05
  0.00000000E+00  1.50776298E-05  0.00000000E+00  0.00000000E+00 -2.61152208E-05
  0.00000000E+00 -8.70790202E-06  0.00000000E+00  0.00000000E+00  1.50825287E-05
  0.00000000E+00  0.00000000E+00  0.00000000E+00  0.00000000E+00  0.00000000E+00
  0.00000000E+00  0.00000000E+00  0.00000000E+00  0.00000000E+00  0.00000000E+00
 -3.03268500E-04  0.00000000E+00  0.00000000E+00  1.26625759E-01  0.00000000E+00
  0.00000000E+00  9.23964077E-01  0.00000000E+00  0.00000000E+00  3.18335971E-02
  0.00000000E+00  0.00000000E+00 -1.41609112E-02  0.00000000E+00  0.00000000E+00
  8.57705911E-03  0.00000000E+00  0.00000000E+00 -2.82067614E-03  0.00000000E+00
  0.00000000E+00  1.03610881E-03  0.00000000E+00  0.00000000E+00  0.00000000E+00
  0.00000000E+00  0.00000000E+00  0.00000000E+00  0.00000000E+00  0.00000000E+00
  0.00000000E+00  0.00000000E+00  0.00000000E+00  0.00000000E+00  0.00000000E+00
  0.00000000E+00  0.00000000E+00  0.00000000E+00  0.00000000E+00  0.00000000E+00
  0.00000000E+00  0.00000000E+00  0.00000000E+00  0.00000000E+00  0.00000000E+00
  0.00000000E+00  0.00000000E+00  0.00000000E+00  0.00000000E+00 -2.98100734E-04
  0.00000000E+00  0.00000000E+00  1.26658177E-01  0.00000000E+00  0.00000000E+00
  9.24011223E-01  0.00000000E+00  0.00000000E+00  3.16603981E-02  0.00000000E+00
  0.00000000E+00 -1.39960359E-02  0.00000000E+00  0.00000000E+00  8.45374388E-03
  0.00000000E+00  0.00000000E+00 -2.77492763E-03  0.00000000E+00  0.00000000E+00
  1.01865673E-03  0.00000000E+00  0.00000000E+00  0.00000000E+00  0.00000000E+00
  0.00000000E+00  0.00000000E+00  0.00000000E+00  0.00000000E+00  0.00000000E+00
  0.00000000E+00  0.00000000E+00  0.00000000E+00  0.00000000E+00  0.00000000E+00
  0.00000000E+00  0.00000000E+00  0.00000000E+00  0.00000000E+00  0.00000000E+00
  0.00000000E+00  0.00000000E+00  0.00000000E+00  0.00000000E+00  0.00000000E+00
  0.00000000E+00  0.00000000E+00  0.00000000E+00 -2.98100734E-04  0.00000000E+00
  0.00000000E+00  1.26658177E-01  0.00000000E+00  0.00000000E+00  9.24011223E-01
  0.00000000E+00  0.00000000E+00  3.16603981E-02  0.00000000E+00  0.00000000E+00
 -1.39960359E-02  0.00000000E+00  0.00000000E+00  8.45374388E-03  0.00000000E+00
  0.00000000E+00 -2.77492763E-03  0.00000000E+00  0.00000000E+00  1.01865673E-03
  0.00000000E+00  0.00000000E+00  0.00000000E+00  0.00000000E+00  0.00000000E+00
  0.00000000E+00  0.00000000E+00  0.00000000E+00  0.00000000E+00  0.00000000E+00
  0.00000000E+00  0.00000000E+00  0.00000000E+00  0.00000000E+00  0.00000000E+00
  5.14875568E-02  1.64859303E-01 -4.21684380E-01 -4.57411316E-01  6.65275286E-01
  6.29924293E-01  3.09214037E-02 -9.87696337E-03  2.13538286E-03  0.00000000E+00
  0.00000000E+00  0.00000000E+00  0.00000000E+00  0.00000000E+00  0.00000000E+00
  0.00000000E+00  0.00000000E+00  0.00000000E+00  0.00000000E+00  0.00000000E+00
  0.00000000E+00  0.00000000E+00  0.00000000E+00  0.00000000E+00  0.00000000E+00
  0.00000000E+00  0.00000000E+00  0.00000000E+00  0.00000000E+00  0.00000000E+00
  0.00000000E+00  0.00000000E+00  0.00000000E+00 -8.47418746E-04  0.00000000E+00
  0.00000000E+00  1.46777232E-03  0.00000000E+00 -7.39330590E-04  0.00000000E+00
  0.00000000E+00  1.28055814E-03  0.00000000E+00  2.26775434E-04  0.00000000E+00
  0.00000000E+00 -3.92786573E-04  0.00000000E+00  0.00000000E+00  0.00000000E+00
  0.00000000E+00  0.00000000E+00  0.00000000E+00  0.00000000E+00  0.00000000E+00
  0.00000000E+00  0.00000000E+00  1.57245545E-05  0.00000000E+00  0.00000000E+00
 -5.23199957E-02  0.00000000E+00  0.00000000E+00 -4.23395422E-01  0.00000000E+00
  0.00000000E+00  8.79107979E-01  0.00000000E+00  0.00000000E+00  2.50333878E-01
  0.00000000E+00  0.00000000E+00  2.82211015E-02  0.00000000E+00  0.00000000E+00
  1.43928276E-03  0.00000000E+00  0.00000000E+00 -1.23698333E-04  0.00000000E+00
  0.00000000E+00  0.00000000E+00  0.00000000E+00  0.00000000E+00  0.00000000E+00
  0.00000000E+00  0.00000000E+00  0.00000000E+00  0.00000000E+00  0.00000000E+00
  0.00000000E+00  0.00000000E+00  0.00000000E+00  0.00000000E+00  0.00000000E+00
  0.00000000E+00  0.00000000E+00  0.00000000E+00  0.00000000E+00  0.00000000E+00
  0.00000000E+00  0.00000000E+00  0.00000000E+00  0.00000000E+00  0.00000000E+00
  0.00000000E+00 -5.20341642E-05  0.00000000E+00  0.00000000E+00 -5.24206285E-02
  0.00000000E+00  0.00000000E+00 -4.24167609E-01  0.00000000E+00  0.00000000E+00
  8.82175696E-01  0.00000000E+00  0.00000000E+00  2.45998021E-01  0.00000000E+00
  0.00000000E+00  3.00088435E-02  0.00000000E+00  0.00000000E+00  8.60326380E-04
  0.00000000E+00  0.00000000E+00  1.04033290E-04  0.00000000E+00  0.00000000E+00
  0.00000000E+00  0.00000000E+00  0.00000000E+00  0.00000000E+00  0.00000000E+00
  0.00000000E+00  0.00000000E+00  0.00000000E+00  0.00000000E+00  0.00000000E+00
  0.00000000E+00  0.00000000E+00  0.00000000E+00  0.00000000E+00  0.00000000E+00
  0.00000000E+00  0.00000000E+00  0.00000000E+00  0.00000000E+00  0.00000000E+00
  0.00000000E+00  0.00000000E+00  0.00000000E+00  0.00000000E+00  0.00000000E+00
 -5.20341642E-05  0.00000000E+00  0.00000000E+00 -5.24206285E-02  0.00000000E+00
  0.00000000E+00 -4.24167609E-01  0.00000000E+00  0.00000000E+00  8.82175696E-01
  0.00000000E+00  0.00000000E+00  2.45998021E-01  0.00000000E+00  0.00000000E+00
  3.00088435E-02  0.00000000E+00  0.00000000E+00  8.60326380E-04  0.00000000E+00
  0.00000000E+00  1.04033290E-04  0.00000000E+00  0.00000000E+00  0.00000000E+00
  0.00000000E+00  0.00000000E+00  0.00000000E+00  0.00000000E+00  0.00000000E+00
  0.00000000E+00  0.00000000E+00  0.00000000E+00  0.00000000E+00  0.00000000E+00
  0.00000000E+00  0.00000000E+00 -1.80324275E-04 -5.73084210E-04  1.39593438E-03
  2.55557239E-03 -6.49762675E-03  2.64046336E-03 -7.29334243E-04 -8.18724863E-04
  1.59315192E-04  0.00000000E+00  0.00000000E+00  0.00000000E+00  0.00000000E+00
  0.00000000E+00  0.00000000E+00  0.00000000E+00  0.00000000E+00  0.00000000E+00
  0.00000000E+00  0.00000000E+00  0.00000000E+00  0.00000000E+00  0.00000000E+00
  0.00000000E+00  0.00000000E+00  0.00000000E+00  0.00000000E+00  0.00000000E+00
  0.00000000E+00  0.00000000E+00  0.00000000E+00  0.00000000E+00  0.00000000E+00
 -4.05224226E-01  0.00000000E+00  0.00000000E+00  7.01868949E-01  0.00000000E+00
 -1.51334498E-01  0.00000000E+00  0.00000000E+00  2.62119040E-01  0.00000000E+00
 -1.76306929E-02  0.00000000E+00  0.00000000E+00  3.05372559E-02  0.00000000E+00
  0.00000000E+00  0.00000000E+00  0.00000000E+00  0.00000000E+00  0.00000000E+00
  0.00000000E+00  0.00000000E+00  0.00000000E+00  0.00000000E+00  0.00000000E+00
  0.00000000E+00  0.00000000E+00  0.00000000E+00  0.00000000E+00  0.00000000E+00
  0.00000000E+00  0.00000000E+00  0.00000000E+00  0.00000000E+00  0.00000000E+00
  0.00000000E+00  0.00000000E+00  0.00000000E+00  0.00000000E+00  0.00000000E+00
  0.00000000E+00  0.00000000E+00  0.00000000E+00  0.00000000E+00  0.00000000E+00
  0.00000000E+00  0.00000000E+00  0.00000000E+00  0.00000000E+00  8.10475374E-01
  0.00000000E+00  0.00000000E+00  0.00000000E+00  0.00000000E+00  3.02321939E-01
  0.00000000E+00  0.00000000E+00  0.00000000E+00  0.00000000E+00  3.60475618E-02
  0.00000000E+00  0.00000000E+00  0.00000000E+00  0.00000000E+00  0.00000000E+00
  0.00000000E+00  0.00000000E+00  0.00000000E+00  0.00000000E+00  0.00000000E+00
  0.00000000E+00  0.00000000E+00  0.00000000E+00  0.00000000E+00  0.00000000E+00
  0.00000000E+00  0.00000000E+00  0.00000000E+00  0.00000000E+00  0.00000000E+00
  0.00000000E+00  0.00000000E+00  0.00000000E+00  0.00000000E+00  0.00000000E+00
  0.00000000E+00  0.00000000E+00  0.00000000E+00  0.00000000E+00  0.00000000E+00
  0.00000000E+00  0.00000000E+00  0.00000000E+00  0.00000000E+00  0.00000000E+00
  0.00000000E+00  0.00000000E+00  0.00000000E+00  0.00000000E+00  0.00000000E+00
  8.10475374E-01  0.00000000E+00  0.00000000E+00  0.00000000E+00  0.00000000E+00
  3.02321939E-01  0.00000000E+00  0.00000000E+00  0.00000000E+00  0.00000000E+00
  3.60475618E-02  0.00000000E+00  0.00000000E+00  0.00000000E+00  0.00000000E+00
  0.00000000E+00  0.00000000E+00  0.00000000E+00  0.00000000E+00  0.00000000E+00
  0.00000000E+00  0.00000000E+00  0.00000000E+00  0.00000000E+00  0.00000000E+00
  0.00000000E+00  0.00000000E+00  0.00000000E+00  0.00000000E+00  0.00000000E+00
  0.00000000E+00  0.00000000E+00  0.00000000E+00  0.00000000E+00  0.00000000E+00
  0.00000000E+00  0.00000000E+00  0.00000000E+00  0.00000000E+00  0.00000000E+00
  0.00000000E+00  0.00000000E+00  0.00000000E+00  0.00000000E+00  0.00000000E+00
  0.00000000E+00  8.10953093E-01  0.00000000E+00  0.00000000E+00  0.00000000E+00
  0.00000000E+00  3.01124740E-01  0.00000000E+00  0.00000000E+00  0.00000000E+00
  0.00000000E+00  3.74079920E-02  0.00000000E+00  0.00000000E+00  1.72206620E-17
  8.91140513E-17 -5.01077672E-16  9.66268642E-16 -2.13264564E-15  3.22705497E-15
 -3.36128121E-15  1.01071534E-15 -1.39648222E-15  0.00000000E+00  0.00000000E+00
  0.00000000E+00  0.00000000E+00  0.00000000E+00  0.00000000E+00  0.00000000E+00
  0.00000000E+00  0.00000000E+00  0.00000000E+00  0.00000000E+00  0.00000000E+00
  0.00000000E+00  0.00000000E+00  0.00000000E+00  0.00000000E+00  0.00000000E+00
  0.00000000E+00  0.00000000E+00  0.00000000E+00  0.00000000E+00  0.00000000E+00
  0.00000000E+00  0.00000000E+00  7.02305980E-01  0.00000000E+00  0.00000000E+00
  4.05476547E-01  0.00000000E+00  2.60781674E-01  0.00000000E+00  0.00000000E+00
  1.50562370E-01  0.00000000E+00  3.23962714E-02  0.00000000E+00  0.00000000E+00
  1.87039960E-02  0.00000000E+00 -1.82361376E-02 -5.90374366E-02  1.59442040E-01
  1.96339777E-01 -3.86995570E-01 -5.03032055E-01  1.09171131E+00  1.69818412E-01
 -7.32509655E-03  0.00000000E+00  0.00000000E+00  0.00000000E+00  0.00000000E+00
  0.00000000E+00  0.00000000E+00  0.00000000E+00  0.00000000E+00  0.00000000E+00
  0.00000000E+00  0.00000000E+00  0.00000000E+00  0.00000000E+00  0.00000000E+00
  0.00000000E+00  0.00000000E+00  0.00000000E+00  0.00000000E+00  0.00000000E+00
  0.00000000E+00  0.00000000E+00  0.00000000E+00  0.00000000E+00  0.00000000E+00
 -1.55806878E-03  0.00000000E+00  0.00000000E+00  2.69865428E-03  0.00000000E+00
 -7.09987197E-04  0.00000000E+00  0.00000000E+00  1.22973390E-03  0.00000000E+00
  6.58976171E-03  0.00000000E+00  0.00000000E+00 -1.14138021E-02  0.00000000E+00
  0.00000000E+00  0.00000000E+00  0.00000000E+00  0.00000000E+00  0.00000000E+00
  0.00000000E+00  0.00000000E+00  0.00000000E+00  0.00000000E+00  0.00000000E+00
 -4.86154124E-03  0.00000000E+00  0.00000000E+00  1.70911826E-02  0.00000000E+00
  0.00000000E+00  1.41008962E-01  0.00000000E+00  0.00000000E+00 -3.69072778E-01
  0.00000000E+00  0.00000000E+00 -1.72557389E-01  0.00000000E+00  0.00000000E+00
  4.05162117E-01  0.00000000E+00  0.00000000E+00  7.29033498E-01  0.00000000E+00
  0.00000000E+00  8.07951489E-02  0.00000000E+00  0.00000000E+00  0.00000000E+00
  0.00000000E+00  0.00000000E+00  0.00000000E+00  0.00000000E+00  0.00000000E+00
  0.00000000E+00  0.00000000E+00  0.00000000E+00  0.00000000E+00  0.00000000E+00
  0.00000000E+00  0.00000000E+00  0.00000000E+00  0.00000000E+00  0.00000000E+00
  0.00000000E+00  0.00000000E+00  0.00000000E+00  0.00000000E+00  0.00000000E+00
  0.00000000E+00  0.00000000E+00  0.00000000E+00  0.00000000E+00 -4.86154124E-03
  0.00000000E+00  0.00000000E+00  1.70911826E-02  0.00000000E+00  0.00000000E+00
  1.41008962E-01  0.00000000E+00  0.00000000E+00 -3.69072778E-01  0.00000000E+00
  0.00000000E+00 -1.72557389E-01  0.00000000E+00  0.00000000E+00  4.05162117E-01
  0.00000000E+00  0.00000000E+00  7.29033498E-01  0.00000000E+00  0.00000000E+00
  8.07951489E-02  0.00000000E+00  0.00000000E+00  0.00000000E+00  0.00000000E+00
  0.00000000E+00  0.00000000E+00  0.00000000E+00  0.00000000E+00  0.00000000E+00
  0.00000000E+00  0.00000000E+00  0.00000000E+00  0.00000000E+00  0.00000000E+00
  0.00000000E+00  0.00000000E+00  0.00000000E+00  0.00000000E+00  0.00000000E+00
  0.00000000E+00  0.00000000E+00  0.00000000E+00  0.00000000E+00  0.00000000E+00
 -7.49936798E-03  0.00000000E+00  0.00000000E+00  1.69269733E-02  0.00000000E+00
  0.00000000E+00  1.39773187E-01  0.00000000E+00  0.00000000E+00 -3.65872293E-01
  0.00000000E+00  0.00000000E+00 -1.65158787E-01  0.00000000E+00  0.00000000E+00
  3.87833828E-01  0.00000000E+00  0.00000000E+00  7.25487837E-01  0.00000000E+00
  0.00000000E+00  1.00802175E-01  0.00000000E+00  0.00000000E+00  0.00000000E+00
  0.00000000E+00  0.00000000E+00  0.00000000E+00  0.00000000E+00  0.00000000E+00
  0.00000000E+00  0.00000000E+00  0.00000000E+00  0.00000000E+00  0.00000000E+00
  0.00000000E+00  0.00000000E+00  0.00000000E+00  0.00000000E+00 -9.11303839E-03
 -2.96991532E-02  8.23244820E-02  9.49018065E-02 -1.86170332E-01 -3.51832117E-01
  1.40833254E+00 -9.81462015E-01 -6.23522086E-01  0.00000000E+00  0.00000000E+00
  0.00000000E+00  0.00000000E+00  0.00000000E+00  0.00000000E+00  0.00000000E+00
  0.00000000E+00  0.00000000E+00  0.00000000E+00  0.00000000E+00  0.00000000E+00
  0.00000000E+00  0.00000000E+00  0.00000000E+00  0.00000000E+00  0.00000000E+00
  0.00000000E+00  0.00000000E+00  0.00000000E+00  0.00000000E+00  0.00000000E+00
  0.00000000E+00  0.00000000E+00  1.04928636E-03  0.00000000E+00  0.00000000E+00
 -1.81741729E-03  0.00000000E+00 -6.37602040E-04  0.00000000E+00  0.00000000E+00
  1.10435913E-03  0.00000000E+00 -9.00600140E-04  0.00000000E+00  0.00000000E+00
  1.55988520E-03  0.00000000E+00  0.00000000E+00  0.00000000E+00  0.00000000E+00
  0.00000000E+00  0.00000000E+00  0.00000000E+00  0.00000000E+00  0.00000000E+00
  0.00000000E+00  0.00000000E+00  0.00000000E+00  0.00000000E+00  0.00000000E+00
  0.00000000E+00  0.00000000E+00  0.00000000E+00  0.00000000E+00  0.00000000E+00
  0.00000000E+00  0.00000000E+00  0.00000000E+00  0.00000000E+00  0.00000000E+00
  0.00000000E+00  0.00000000E+00  0.00000000E+00  0.00000000E+00  0.00000000E+00
  0.00000000E+00  0.00000000E+00  0.00000000E+00  0.00000000E+00  0.00000000E+00
  0.00000000E+00  0.00000000E+00 -2.80768909E-01  0.00000000E+00  0.00000000E+00
  0.00000000E+00  0.00000000E+00 -2.32433190E-02  0.00000000E+00  0.00000000E+00
  0.00000000E+00  0.00000000E+00  9.99458921E-01  0.00000000E+00  0.00000000E+00
  6.58292064E-16  2.11982887E-15 -5.63934440E-15 -7.83979991E-15  1.63601043E-14
  2.01775654E-14 -9.12809792E-14  7.86643490E-14 -2.60697298E-15  0.00000000E+00
  0.00000000E+00  0.00000000E+00  0.00000000E+00  0.00000000E+00  0.00000000E+00
  0.00000000E+00  0.00000000E+00  0.00000000E+00  0.00000000E+00  0.00000000E+00
  0.00000000E+00  0.00000000E+00  0.00000000E+00  0.00000000E+00  0.00000000E+00
  0.00000000E+00  0.00000000E+00  0.00000000E+00  0.00000000E+00  0.00000000E+00
  0.00000000E+00  0.00000000E+00  0.00000000E+00 -2.43153008E-01  0.00000000E+00
  0.00000000E+00 -1.40384455E-01  0.00000000E+00 -2.01293048E-02  0.00000000E+00
  0.00000000E+00 -1.16216595E-02  0.00000000E+00  8.65556816E-01  0.00000000E+00
  0.00000000E+00  4.99729460E-01  0.00000000E+00  0.00000000E+00  0.00000000E+00
  0.00000000E+00  0.00000000E+00  0.00000000E+00  0.00000000E+00  0.00000000E+00
  0.00000000E+00  0.00000000E+00  0.00000000E+00  0.00000000E+00  0.00000000E+00
  0.00000000E+00  0.00000000E+00  0.00000000E+00  0.00000000E+00  0.00000000E+00
  0.00000000E+00  0.00000000E+00  0.00000000E+00  0.00000000E+00  0.00000000E+00
  0.00000000E+00  0.00000000E+00  0.00000000E+00  0.00000000E+00  0.00000000E+00
  0.00000000E+00  0.00000000E+00  0.00000000E+00  0.00000000E+00  0.00000000E+00
  0.00000000E+00  0.00000000E+00 -2.80300176E-01  0.00000000E+00  0.00000000E+00