fubar                                                                   
SP        UPBE1PBE                                                    6-311+G(d,p)        
Number of atoms                            I                1
Info1-9                                    I   N=           9
          11          10           0           0           0         110
           1          18       -1302
Full Title                                 C   N=           1
fubar       
Route                                      C   N=           3
#PBE1PBE/6-311+G(d,p) scf=tight     
Charge                                     I                1
Multiplicity                               I                2
Number of electrons                        I               13
Number of alpha electrons                  I                7
Number of beta electrons                   I                6
Number of basis functions                  I               30
Number of independent functions            I               30
Number of point charges in /Mol/           I                0
Number of translation vectors              I                0
Atomic numbers                             I   N=           1
          14
Nuclear charges                            R   N=           1
  1.40000000E+01
Current cartesian coordinates              R   N=           3
  0.00000000E+00  0.00000000E+00  0.00000000E+00
Number of symbols in /Mol/                 I                0
Int Atom Types                             I   N=           1
           0
Force Field                                I                0
Atom Types                                 C   N=           1
            
MM charges                                 R   N=           1
  0.00000000E+00
Integer atomic weights                     I   N=           1
          28
Real atomic weights                        R   N=           1
  2.79769284E+01
Atom fragment info                         I   N=           1
           0
Atom residue num                           I   N=           1
           0
Nuclear spins                              I   N=           1
           0
Nuclear ZEff                               R   N=           1
 -1.22500000E+01
Nuclear ZNuc                               R   N=           1
  1.40000000E+01
Nuclear QMom                               R   N=           1
  0.00000000E+00
Nuclear GFac                               R   N=           1
  0.00000000E+00
MicOpt                                     I   N=           1
          -1
Number of residues                         I                0
Number of secondary structures             I                0
SymInf integers                            I   N=          26
           1           8           1           1           1           1
          -1          -1          -1           1          -1          -1
          -1           1          -1          -1          -1          -1
           1           1           1          -1           1           1
           1          -1
RotTr to input orientation                 R   N=          12
  0.00000000E+00  0.00000000E+00 -1.00000000E+00  0.00000000E+00  1.00000000E+00
  0.00000000E+00  1.00000000E+00  0.00000000E+00  0.00000000E+00  0.00000000E+00
  0.00000000E+00  0.00000000E+00
Number of contracted shells                I               13
Number of primitive shells                 I               24
Pure/Cartesian d shells                    I                0
Pure/Cartesian f shells                    I                0
Highest angular momentum                   I                2
Largest degree of contraction              I                6
Shell types                                I   N=          13
           0           0           0           0           0           0
          -1           1           1           1           1           1
          -2
Number of primitives per shell             I   N=          13
           6           3           1           1           1           1
           1           4           2           1           1           1
           1
Shell to atom map                          I   N=          13
           1           1           1           1           1           1
           1           1           1           1           1           1
           1
Primitive exponents                        R   N=          24
  6.93792300E+04  1.03549400E+04  2.33387960E+03  6.57142950E+02  2.14301130E+02
  7.76291680E+01  7.76291680E+01  3.06308070E+01  1.28012950E+01  3.92686600E+00
  1.45234300E+00  2.56234000E-01  9.42790000E-02  3.31000000E-02  3.35483190E+02
  7.89003660E+01  2.49881500E+01  9.21971100E+00  3.62114000E+00  1.45131000E+00
  5.04977000E-01  1.86317000E-01  6.54320000E-02  4.50000000E-01
Contraction coefficients                   R   N=          24
  7.57000408E-04  5.93200320E-03  3.10880168E-02  1.24967067E-01  3.86897209E-01
  5.54888299E-01  1.77880945E-01  6.27764806E-01  2.47622924E-01  1.00000000E+00
  1.00000000E+00  1.00000000E+00  1.00000000E+00  1.00000000E+00  8.86599815E-03
  6.82989857E-02  2.90957939E-01  7.32116847E-01  6.19879440E-01  4.39148312E-01
  1.00000000E+00  1.00000000E+00  1.00000000E+00  1.00000000E+00
P(S=P) Contraction coefficients            R   N=          24
  0.00000000E+00  0.00000000E+00  0.00000000E+00  0.00000000E+00  0.00000000E+00
  0.00000000E+00  0.00000000E+00  0.00000000E+00  0.00000000E+00  0.00000000E+00
  0.00000000E+00  0.00000000E+00  0.00000000E+00  1.00000000E+00  0.00000000E+00
  0.00000000E+00  0.00000000E+00  0.00000000E+00  0.00000000E+00  0.00000000E+00
  0.00000000E+00  0.00000000E+00  0.00000000E+00  0.00000000E+00
Coordinates of each shell                  R   N=          39
  0.00000000E+00  0.00000000E+00  0.00000000E+00  0.00000000E+00  0.00000000E+00
  0.00000000E+00  0.00000000E+00  0.00000000E+00  0.00000000E+00  0.00000000E+00
  0.00000000E+00  0.00000000E+00  0.00000000E+00  0.00000000E+00  0.00000000E+00
  0.00000000E+00  0.00000000E+00  0.00000000E+00  0.00000000E+00  0.00000000E+00
  0.00000000E+00  0.00000000E+00  0.00000000E+00  0.00000000E+00  0.00000000E+00
  0.00000000E+00  0.00000000E+00  0.00000000E+00  0.00000000E+00  0.00000000E+00
  0.00000000E+00  0.00000000E+00  0.00000000E+00  0.00000000E+00  0.00000000E+00
  0.00000000E+00  0.00000000E+00  0.00000000E+00  0.00000000E+00
Num ILSW                                   I              100
ILSW                                       I   N=         100
           1           0           0           0           2           0
           0           0           0           0        1009          -1
           5           0           0           0           0           0
           0           0           0           0           0           0
           1           0           0           0           0           0
           0           0      100000           0          -1           0
           0           0           0           0           0           0
           0           0           0           1           0           0
           0 -2000000000           1           0           0           0
           0           1           4          52           0           0
           0           0          13           0           0           0
           0           0           0           1           0           1
           0           0           0           0           0           0
           0           0           0           0           0           0
           0           0           0           0           0           0
           0           0           0           0           0           0
           0           0           0           0
Num RLSW                                   I               52
RLSW                                       R   N=          52
  7.50000000E-01  7.50000000E-01  1.00000000E+00  1.00000000E+00  2.50000000E-01
  0.00000000E+00  0.00000000E+00  1.00000000E+00  0.00000000E+00  0.00000000E+00
  0.00000000E+00  0.00000000E+00  1.00000000E+00  0.00000000E+00  0.00000000E+00
  0.00000000E+00  0.00000000E+00  1.00000000E+00  0.00000000E+00  0.00000000E+00
  0.00000000E+00  0.00000000E+00  1.00000000E+00  0.00000000E+00  0.00000000E+00
  0.00000000E+00  0.00000000E+00  1.00000000E+00  0.00000000E+00  0.00000000E+00
  0.00000000E+00  0.00000000E+00  1.00000000E+00  0.00000000E+00  0.00000000E+00
  0.00000000E+00  0.00000000E+00  0.00000000E+00  1.00000000E+00  1.00000000E+00
  0.00000000E+00  1.00000000E+00  0.00000000E+00  0.00000000E+00  0.00000000E+00
  0.00000000E+00  0.00000000E+00  0.00000000E+00  0.00000000E+00  0.00000000E+00
  0.00000000E+00  0.00000000E+00
MxBond                                     I                1
NBond                                      I   N=           1
           0
IBond                                      I   N=           1
           0
RBond                                      R   N=           1
  0.00000000E+00
Virial Ratio                               R      2.001346155849927E+00
SCF Energy                                 R     -2.889486508532514E+02
Total Energy                               R     -2.889486508532514E+02
S**2                                       R      7.534285629748290E-01
S**2 after annihilation                    R      7.500000104502492E-01
RMS Density                                R      4.316447995763071E-09
Job Status                                 I                1
Nuclear derivative order                   I                0
External E-field                           R   N=          35
  0.00000000E+00  0.00000000E+00  0.00000000E+00  0.00000000E+00  0.00000000E+00
  0.00000000E+00  0.00000000E+00  0.00000000E+00  0.00000000E+00  0.00000000E+00
  0.00000000E+00  0.00000000E+00  0.00000000E+00  0.00000000E+00  0.00000000E+00
  0.00000000E+00  0.00000000E+00  0.00000000E+00  0.00000000E+00  0.00000000E+00
  0.00000000E+00  0.00000000E+00  0.00000000E+00  0.00000000E+00  0.00000000E+00
  0.00000000E+00  0.00000000E+00  0.00000000E+00  0.00000000E+00  0.00000000E+00
  0.00000000E+00  0.00000000E+00  0.00000000E+00  0.00000000E+00  0.00000000E+00
IOpCl                                      I                1
IROHF                                      I                0
Alpha Orbital Energies                     R   N=          30
 -6.66511321E+01 -5.72371648E+00 -4.05881912E+00 -4.05881912E+00 -4.05558837E+00
 -7.58989236E-01 -4.89425079E-01 -3.95975614E-01 -3.95975614E-01 -1.48908209E-01
 -9.65480640E-02 -9.14795670E-02 -9.14795670E-02  9.32362010E-02  9.75437395E-02
  9.75437395E-02  1.73877197E-01  2.53640723E-01  2.53640723E-01  2.58433541E-01
  2.70631088E-01  2.70631088E-01  9.26451407E-01  9.33145043E-01  9.33145043E-01
  4.89276578E+00  1.09744830E+01  1.09744830E+01  1.09753766E+01  1.40441529E+02
Beta Orbital Energies                      R   N=          30
 -6.66468651E+01 -5.71938473E+00 -4.05663711E+00 -4.05663711E+00 -4.03942748E+00
 -7.15155798E-01 -3.81436935E-01 -3.81436935E-01 -3.38669205E-01 -1.34075629E-01
 -8.33017383E-02 -8.33017383E-02 -7.35412854E-02  1.05051597E-01  1.05051597E-01
  1.22710941E-01  1.91273248E-01  2.72976328E-01  2.72976328E-01  3.11071858E-01
  3.11071858E-01  3.25478380E-01  9.40819398E-01  9.40819398E-01  9.72127201E-01
  4.90320810E+00  1.09777487E+01  1.09777487E+01  1.09970551E+01  1.40445374E+02
Alpha MO coefficients                      R   N=         900
  4.17764780E-01  6.46715586E-01  1.35707065E-02 -4.33060631E-03  1.70541677E-03
 -1.18244585E-03  3.88582388E-04  0.00000000E+00  0.00000000E+00  0.00000000E+00
  0.00000000E+00  0.00000000E+00  0.00000000E+00  0.00000000E+00  0.00000000E+00
  0.00000000E+00  0.00000000E+00  0.00000000E+00  0.00000000E+00  0.00000000E+00
  0.00000000E+00  0.00000000E+00  0.00000000E+00  0.00000000E+00  0.00000000E+00
  2.42485113E-06  0.00000000E+00  0.00000000E+00  4.19996537E-06  0.00000000E+00
 -1.17166947E-01 -3.05050291E-01  5.40143012E-01  5.71593797E-01  5.04439509E-02
 -2.41223355E-02  7.23561558E-03  0.00000000E+00  0.00000000E+00  0.00000000E+00
  0.00000000E+00  0.00000000E+00  0.00000000E+00  0.00000000E+00  0.00000000E+00
  0.00000000E+00  0.00000000E+00  0.00000000E+00  0.00000000E+00  0.00000000E+00
  0.00000000E+00  0.00000000E+00  0.00000000E+00  0.00000000E+00  0.00000000E+00
  7.76977635E-05  0.00000000E+00  0.00000000E+00  1.34576474E-04  0.00000000E+00
  0.00000000E+00  0.00000000E+00  0.00000000E+00  0.00000000E+00  0.00000000E+00
  0.00000000E+00  0.00000000E+00  0.00000000E+00  0.00000000E+00 -2.14471123E-03
  0.00000000E+00  0.00000000E+00  4.03031431E-01  0.00000000E+00  0.00000000E+00
  6.90919376E-01  0.00000000E+00  0.00000000E+00  5.68569643E-02  0.00000000E+00
  0.00000000E+00 -8.60343625E-03  0.00000000E+00  0.00000000E+00  4.83818322E-03
  0.00000000E+00  0.00000000E+00  0.00000000E+00  0.00000000E+00  0.00000000E+00
  0.00000000E+00  0.00000000E+00  0.00000000E+00  0.00000000E+00  0.00000000E+00
  0.00000000E+00  0.00000000E+00 -2.14471123E-03  0.00000000E+00  0.00000000E+00
  4.03031431E-01  0.00000000E+00  0.00000000E+00  6.90919376E-01  0.00000000E+00
  0.00000000E+00  5.68569643E-02  0.00000000E+00  0.00000000E+00 -8.60343625E-03
  0.00000000E+00  0.00000000E+00  4.83818322E-03  0.00000000E+00  0.00000000E+00
  0.00000000E+00  0.00000000E+00  0.00000000E+00  0.00000000E+00  0.00000000E+00
  0.00000000E+00  0.00000000E+00  0.00000000E+00  0.00000000E+00  0.00000000E+00
  0.00000000E+00  0.00000000E+00  0.00000000E+00 -1.72678039E-03  0.00000000E+00
  0.00000000E+00  4.04513906E-01  0.00000000E+00  0.00000000E+00  6.90395065E-01
  0.00000000E+00  0.00000000E+00  5.48716083E-02  0.00000000E+00  0.00000000E+00
 -7.22152768E-03  0.00000000E+00  0.00000000E+00  3.93932889E-03  0.00000000E+00
  0.00000000E+00  0.00000000E+00  0.00000000E+00  0.00000000E+00  0.00000000E+00
  3.40422189E-02  9.34287115E-02 -2.11709718E-01 -3.70911076E-01  7.59996159E-01
  4.36460384E-01 -2.65813792E-02  0.00000000E+00  0.00000000E+00  0.00000000E+00
  0.00000000E+00  0.00000000E+00  0.00000000E+00  0.00000000E+00  0.00000000E+00
  0.00000000E+00  0.00000000E+00  0.00000000E+00  0.00000000E+00  0.00000000E+00
  0.00000000E+00  0.00000000E+00  0.00000000E+00  0.00000000E+00  0.00000000E+00
 -9.73610861E-03  0.00000000E+00  0.00000000E+00 -1.68634348E-02  0.00000000E+00
  0.00000000E+00  0.00000000E+00  0.00000000E+00  0.00000000E+00  0.00000000E+00
  0.00000000E+00  0.00000000E+00  0.00000000E+00 -1.75435430E-02  0.00000000E+00
  0.00000000E+00 -1.08559598E-01  0.00000000E+00  0.00000000E+00 -1.91310020E-01
  0.00000000E+00  0.00000000E+00  2.63968515E-01  0.00000000E+00  0.00000000E+00
  6.61155463E-01  0.00000000E+00  0.00000000E+00  2.26764636E-01  0.00000000E+00
  0.00000000E+00  0.00000000E+00  0.00000000E+00  0.00000000E+00  0.00000000E+00
  0.00000000E+00  0.00000000E+00  0.00000000E+00  0.00000000E+00  0.00000000E+00
  0.00000000E+00  0.00000000E+00 -1.66791025E-02  0.00000000E+00  0.00000000E+00
 -1.04787770E-01  0.00000000E+00  0.00000000E+00 -1.84374208E-01  0.00000000E+00
  0.00000000E+00  2.47205388E-01  0.00000000E+00  0.00000000E+00  6.29762233E-01
  0.00000000E+00  0.00000000E+00  2.81036632E-01  0.00000000E+00  0.00000000E+00
  0.00000000E+00  0.00000000E+00  0.00000000E+00  0.00000000E+00  0.00000000E+00
  0.00000000E+00  0.00000000E+00  0.00000000E+00  0.00000000E+00  0.00000000E+00
  0.00000000E+00  0.00000000E+00  0.00000000E+00  0.00000000E+00 -1.66791025E-02
  0.00000000E+00  0.00000000E+00 -1.04787770E-01  0.00000000E+00  0.00000000E+00
 -1.84374208E-01  0.00000000E+00  0.00000000E+00  2.47205388E-01  0.00000000E+00
  0.00000000E+00  6.29762233E-01  0.00000000E+00  0.00000000E+00  2.81036632E-01
  0.00000000E+00  0.00000000E+00  0.00000000E+00  0.00000000E+00  0.00000000E+00
 -1.33571935E-02 -3.69211550E-02  8.62799432E-02  1.61012213E-01 -4.69511230E-01
 -6.26863386E-01  1.47159724E+00  0.00000000E+00  0.00000000E+00  0.00000000E+00
  0.00000000E+00  0.00000000E+00  0.00000000E+00  0.00000000E+00  0.00000000E+00
  0.00000000E+00  0.00000000E+00  0.00000000E+00  0.00000000E+00  0.00000000E+00
  0.00000000E+00  0.00000000E+00  0.00000000E+00  0.00000000E+00  0.00000000E+00
  6.91747395E-04  0.00000000E+00  0.00000000E+00  1.19814163E-03  0.00000000E+00
  0.00000000E+00  0.00000000E+00  0.00000000E+00  0.00000000E+00  0.00000000E+00
  0.00000000E+00  0.00000000E+00  0.00000000E+00  1.32621996E+00  0.00000000E+00
  0.00000000E+00  4.31441577E-02  0.00000000E+00  0.00000000E+00  7.77976274E-02
  0.00000000E+00  0.00000000E+00 -1.42333082E-01  0.00000000E+00  0.00000000E+00
 -2.91983856E-01  0.00000000E+00  0.00000000E+00 -3.66139701E-01  0.00000000E+00
  0.00000000E+00  0.00000000E+00  0.00000000E+00  0.00000000E+00  0.00000000E+00
  0.00000000E+00  0.00000000E+00  0.00000000E+00  0.00000000E+00  0.00000000E+00
  0.00000000E+00  0.00000000E+00  1.35624972E+00  0.00000000E+00  0.00000000E+00
  4.55728348E-02  0.00000000E+00  0.00000000E+00  8.20385655E-02  0.00000000E+00
  0.00000000E+00 -1.45297682E-01  0.00000000E+00  0.00000000E+00 -3.00429590E-01
  0.00000000E+00  0.00000000E+00 -4.18506399E-01  0.00000000E+00  0.00000000E+00
  0.00000000E+00  0.00000000E+00  0.00000000E+00  0.00000000E+00  0.00000000E+00
  0.00000000E+00  0.00000000E+00  0.00000000E+00  0.00000000E+00  0.00000000E+00
  0.00000000E+00  0.00000000E+00  0.00000000E+00  0.00000000E+00  1.35624972E+00
  0.00000000E+00  0.00000000E+00  4.55728348E-02  0.00000000E+00  0.00000000E+00
  8.20385655E-02  0.00000000E+00  0.00000000E+00 -1.45297682E-01  0.00000000E+00
  0.00000000E+00 -3.00429590E-01  0.00000000E+00  0.00000000E+00 -4.18506399E-01
  0.00000000E+00  0.00000000E+00  0.00000000E+00  0.00000000E+00  0.00000000E+00
  0.00000000E+00  0.00000000E+00  0.00000000E+00  0.00000000E+00  0.00000000E+00
  0.00000000E+00  0.00000000E+00  0.00000000E+00 -2.00678710E+00  0.00000000E+00
  0.00000000E+00  7.03909433E-02  0.00000000E+00  0.00000000E+00  1.13982862E-01
  0.00000000E+00  0.00000000E+00 -1.24180297E-01  0.00000000E+00  0.00000000E+00
 -1.24007934E+00  0.00000000E+00  0.00000000E+00  3.03024520E+00  0.00000000E+00
  0.00000000E+00  0.00000000E+00  0.00000000E+00  0.00000000E+00  0.00000000E+00
  0.00000000E+00  0.00000000E+00  0.00000000E+00  0.00000000E+00  0.00000000E+00
  0.00000000E+00  0.00000000E+00 -1.99011373E+00  0.00000000E+00  0.00000000E+00
  7.30844401E-02  0.00000000E+00  0.00000000E+00  1.18201212E-01  0.00000000E+00
  0.00000000E+00 -1.22286057E-01  0.00000000E+00  0.00000000E+00 -1.27447532E+00
  0.00000000E+00  0.00000000E+00  3.02802378E+00  0.00000000E+00  0.00000000E+00
  0.00000000E+00  0.00000000E+00  0.00000000E+00  0.00000000E+00  0.00000000E+00
  0.00000000E+00  0.00000000E+00  0.00000000E+00  0.00000000E+00  0.00000000E+00
  0.00000000E+00  0.00000000E+00  0.00000000E+00  0.00000000E+00 -1.99011373E+00
  0.00000000E+00  0.00000000E+00  7.30844401E-02  0.00000000E+00  0.00000000E+00
  1.18201212E-01  0.00000000E+00  0.00000000E+00 -1.22286057E-01  0.00000000E+00
  0.00000000E+00 -1.27447532E+00  0.00000000E+00  0.00000000E+00  3.02802378E+00
  0.00000000E+00  0.00000000E+00  0.00000000E+00  0.00000000E+00  0.00000000E+00
 -2.80890460E-02 -7.50037844E-02  1.50830812E-01  4.77194971E-01 -2.58318659E+00
  3.52172496E+00 -1.61456390E+00  0.00000000E+00  0.00000000E+00  0.00000000E+00
  0.00000000E+00  0.00000000E+00  0.00000000E+00  0.00000000E+00  0.00000000E+00
  0.00000000E+00  0.00000000E+00  0.00000000E+00  0.00000000E+00  0.00000000E+00
  0.00000000E+00  0.00000000E+00  0.00000000E+00  0.00000000E+00  0.00000000E+00
 -5.51486699E-03  0.00000000E+00  0.00000000E+00 -9.55202982E-03  0.00000000E+00
  0.00000000E+00  0.00000000E+00  0.00000000E+00  0.00000000E+00  0.00000000E+00
  0.00000000E+00  0.00000000E+00  0.00000000E+00  0.00000000E+00  0.00000000E+00
  0.00000000E+00  0.00000000E+00  0.00000000E+00  0.00000000E+00  0.00000000E+00
  0.00000000E+00  0.00000000E+00  0.00000000E+00  0.00000000E+00  0.00000000E+00
  0.00000000E+00  0.00000000E+00  0.00000000E+00  0.00000000E+00  0.00000000E+00
  0.00000000E+00  0.00000000E+00  1.00000000E+00  0.00000000E+00  0.00000000E+00
  0.00000000E+00  0.00000000E+00  0.00000000E+00  0.00000000E+00  0.00000000E+00
  0.00000000E+00  0.00000000E+00  0.00000000E+00  0.00000000E+00  0.00000000E+00
  0.00000000E+00  0.00000000E+00  0.00000000E+00  0.00000000E+00  0.00000000E+00
  0.00000000E+00  0.00000000E+00  0.00000000E+00  0.00000000E+00  0.00000000E+00
  0.00000000E+00  0.00000000E+00  0.00000000E+00  0.00000000E+00  0.00000000E+00
  0.00000000E+00  0.00000000E+00  0.00000000E+00  0.00000000E+00  1.00000000E+00
  5.33344117E-04  1.68179259E-03 -5.95618437E-03  1.46926607E-03 -1.53060304E-02
  4.98310244E-02 -2.08936257E-02  0.00000000E+00  0.00000000E+00  0.00000000E+00
  0.00000000E+00  0.00000000E+00  0.00000000E+00  0.00000000E+00  0.00000000E+00
  0.00000000E+00  0.00000000E+00  0.00000000E+00  0.00000000E+00  0.00000000E+00
  0.00000000E+00  0.00000000E+00  0.00000000E+00  0.00000000E+00  0.00000000E+00
  4.99873808E-01  0.00000000E+00  0.00000000E+00  8.65806833E-01  0.00000000E+00
  6.77793640E-16  1.96270372E-15 -5.81807422E-15 -5.21745481E-15  3.25124390E-14
 -2.61783758E-14  3.01130479E-15  0.00000000E+00  0.00000000E+00  0.00000000E+00
  0.00000000E+00  0.00000000E+00  0.00000000E+00  0.00000000E+00  0.00000000E+00
  0.00000000E+00  0.00000000E+00  0.00000000E+00  0.00000000E+00  0.00000000E+00
  0.00000000E+00  0.00000000E+00  0.00000000E+00  0.00000000E+00  0.00000000E+00
  8.66025404E-01  0.00000000E+00  0.00000000E+00 -5.00000000E-01  0.00000000E+00
  0.00000000E+00  0.00000000E+00  0.00000000E+00  0.00000000E+00  0.00000000E+00
  0.00000000E+00  0.00000000E+00  0.00000000E+00  0.00000000E+00  0.00000000E+00
  0.00000000E+00  0.00000000E+00  0.00000000E+00  0.00000000E+00  0.00000000E+00
  0.00000000E+00  0.00000000E+00  0.00000000E+00  0.00000000E+00  0.00000000E+00
  0.00000000E+00  0.00000000E+00  0.00000000E+00  0.00000000E+00  0.00000000E+00
  0.00000000E+00  1.00000000E+00  0.00000000E+00  0.00000000E+00  0.00000000E+00
  0.00000000E+00  0.00000000E+00  0.00000000E+00  0.00000000E+00  0.00000000E+00
  0.00000000E+00  0.00000000E+00  0.00000000E+00  9.01129171E-01  0.00000000E+00
  0.00000000E+00  1.75271222E-01  0.00000000E+00  0.00000000E+00  3.94378532E-01
  0.00000000E+00  0.00000000E+00 -1.99062500E+00  0.00000000E+00  0.00000000E+00
  2.54319729E+00  0.00000000E+00  0.00000000E+00 -1.95572673E+00  0.00000000E+00
  0.00000000E+00  0.00000000E+00  0.00000000E+00  0.00000000E+00  0.00000000E+00
  0.00000000E+00  0.00000000E+00  0.00000000E+00  0.00000000E+00  0.00000000E+00
  0.00000000E+00  0.00000000E+00  8.93386421E-01  0.00000000E+00  0.00000000E+00
  1.76820691E-01  0.00000000E+00  0.00000000E+00  3.96766839E-01  0.00000000E+00
  0.00000000E+00 -1.99251303E+00  0.00000000E+00  0.00000000E+00  2.53310898E+00
  0.00000000E+00  0.00000000E+00 -1.94154256E+00  0.00000000E+00  0.00000000E+00
  0.00000000E+00  0.00000000E+00  0.00000000E+00  0.00000000E+00  0.00000000E+00
  0.00000000E+00  0.00000000E+00  0.00000000E+00  0.00000000E+00  0.00000000E+00
  0.00000000E+00  0.00000000E+00  0.00000000E+00  0.00000000E+00  8.93386421E-01
  0.00000000E+00  0.00000000E+00  1.76820691E-01  0.00000000E+00  0.00000000E+00
  3.96766839E-01  0.00000000E+00  0.00000000E+00 -1.99251303E+00  0.00000000E+00
  0.00000000E+00  2.53310898E+00  0.00000000E+00  0.00000000E+00 -1.94154256E+00
  0.00000000E+00  0.00000000E+00  0.00000000E+00  0.00000000E+00  0.00000000E+00
  1.11558061E-01  4.17527239E-01 -2.35620387E+00  2.67908416E+00 -1.61315445E+00
  1.15023739E+00 -3.76607088E-01  0.00000000E+00  0.00000000E+00  0.00000000E+00
  0.00000000E+00  0.00000000E+00  0.00000000E+00  0.00000000E+00  0.00000000E+00
  0.00000000E+00  0.00000000E+00  0.00000000E+00  0.00000000E+00  0.00000000E+00
  0.00000000E+00  0.00000000E+00  0.00000000E+00  0.00000000E+00  0.00000000E+00
 -6.96987723E-04  0.00000000E+00  0.00000000E+00 -1.20721815E-03  0.00000000E+00
  0.00000000E+00  0.00000000E+00  0.00000000E+00  0.00000000E+00  0.00000000E+00
  0.00000000E+00  0.00000000E+00  2.22321835E-01  0.00000000E+00  0.00000000E+00
 -1.19165458E+00  0.00000000E+00  0.00000000E+00  1.37342983E+00  0.00000000E+00
  0.00000000E+00 -1.02763504E+00  0.00000000E+00  0.00000000E+00  7.57928956E-01
  0.00000000E+00  0.00000000E+00 -4.88407618E-01  0.00000000E+00  0.00000000E+00
  0.00000000E+00  0.00000000E+00  0.00000000E+00  0.00000000E+00  0.00000000E+00
  0.00000000E+00  0.00000000E+00  0.00000000E+00  0.00000000E+00  0.00000000E+00
  0.00000000E+00  0.00000000E+00  0.00000000E+00  0.00000000E+00  2.22321835E-01
  0.00000000E+00  0.00000000E+00 -1.19165458E+00  0.00000000E+00  0.00000000E+00
  1.37342983E+00  0.00000000E+00  0.00000000E+00 -1.02763504E+00  0.00000000E+00
  0.00000000E+00  7.57928956E-01  0.00000000E+00  0.00000000E+00 -4.88407618E-01
  0.00000000E+00  0.00000000E+00  0.00000000E+00  0.00000000E+00  0.00000000E+00
  0.00000000E+00  0.00000000E+00  0.00000000E+00  0.00000000E+00  0.00000000E+00
  0.00000000E+00  0.00000000E+00  0.00000000E+00  2.22298636E-01  0.00000000E+00
  0.00000000E+00 -1.19129603E+00  0.00000000E+00  0.00000000E+00  1.37403597E+00
  0.00000000E+00  0.00000000E+00 -1.02742049E+00  0.00000000E+00  0.00000000E+00
  7.57782743E-01  0.00000000E+00  0.00000000E+00 -4.88324857E-01  0.00000000E+00
  0.00000000E+00  0.00000000E+00  0.00000000E+00  0.00000000E+00  0.00000000E+00
 -1.54885576E+00  1.85520107E+00 -1.23426592E+00  7.73686986E-01 -3.30434258E-01
  2.29913376E-01 -7.56297685E-02  0.00000000E+00  0.00000000E+00  0.00000000E+00
  0.00000000E+00  0.00000000E+00  0.00000000E+00  0.00000000E+00  0.00000000E+00
  0.00000000E+00  0.00000000E+00  0.00000000E+00  0.00000000E+00  0.00000000E+00
  0.00000000E+00  0.00000000E+00  0.00000000E+00  0.00000000E+00  0.00000000E+00
 -3.23569770E-06  0.00000000E+00  0.00000000E+00 -5.60439282E-06  0.00000000E+00
Beta MO coefficients                       R   N=         900
  4.17796155E-01  6.46709660E-01  1.35039357E-02 -4.29569647E-03  1.69842815E-03
 -1.17422921E-03  3.86016190E-04  0.00000000E+00  0.00000000E+00  0.00000000E+00
  0.00000000E+00  0.00000000E+00  0.00000000E+00  0.00000000E+00  0.00000000E+00
  0.00000000E+00  0.00000000E+00  0.00000000E+00  0.00000000E+00  0.00000000E+00
  0.00000000E+00  0.00000000E+00  0.00000000E+00  0.00000000E+00  0.00000000E+00
  3.56684448E-07  0.00000000E+00  0.00000000E+00  6.17795587E-07  0.00000000E+00
 -1.17124900E-01 -3.04935353E-01  5.39429520E-01  5.72680717E-01  4.95375322E-02
 -2.39248913E-02  7.16625320E-03  0.00000000E+00  0.00000000E+00  0.00000000E+00
  0.00000000E+00  0.00000000E+00  0.00000000E+00  0.00000000E+00  0.00000000E+00
  0.00000000E+00  0.00000000E+00  0.00000000E+00  0.00000000E+00  0.00000000E+00
  0.00000000E+00  0.00000000E+00  0.00000000E+00  0.00000000E+00  0.00000000E+00
  5.03343005E-04  0.00000000E+00  0.00000000E+00  8.71815659E-04  0.00000000E+00
  0.00000000E+00  0.00000000E+00  0.00000000E+00  0.00000000E+00  0.00000000E+00
  0.00000000E+00  0.00000000E+00  0.00000000E+00  0.00000000E+00 -2.25695856E-03
  0.00000000E+00  0.00000000E+00  4.02849017E-01  0.00000000E+00  0.00000000E+00
  6.91012669E-01  0.00000000E+00  0.00000000E+00  5.71304367E-02  0.00000000E+00
  0.00000000E+00 -9.01284329E-03  0.00000000E+00  0.00000000E+00  5.07936779E-03
  0.00000000E+00  0.00000000E+00  0.00000000E+00  0.00000000E+00  0.00000000E+00
  0.00000000E+00  0.00000000E+00  0.00000000E+00  0.00000000E+00  0.00000000E+00
  0.00000000E+00  0.00000000E+00 -2.25695856E-03  0.00000000E+00  0.00000000E+00
  4.02849017E-01  0.00000000E+00  0.00000000E+00  6.91012669E-01  0.00000000E+00
  0.00000000E+00  5.71304367E-02  0.00000000E+00  0.00000000E+00 -9.01284329E-03
  0.00000000E+00  0.00000000E+00  5.07936779E-03  0.00000000E+00  0.00000000E+00
  0.00000000E+00  0.00000000E+00  0.00000000E+00  0.00000000E+00  0.00000000E+00
  0.00000000E+00  0.00000000E+00  0.00000000E+00  0.00000000E+00  0.00000000E+00
  0.00000000E+00  0.00000000E+00  0.00000000E+00 -2.05500967E-03  0.00000000E+00
  0.00000000E+00  4.03383711E-01  0.00000000E+00  0.00000000E+00  6.91559751E-01
  0.00000000E+00  0.00000000E+00  5.48365270E-02  0.00000000E+00  0.00000000E+00
 -8.32518593E-03  0.00000000E+00  0.00000000E+00  4.63737016E-03  0.00000000E+00
  0.00000000E+00  0.00000000E+00  0.00000000E+00  0.00000000E+00  0.00000000E+00
  3.42321624E-02  9.42595375E-02 -2.16336036E-01 -3.66388593E-01  7.63535518E-01
  4.26475244E-01 -1.96945665E-02  0.00000000E+00  0.00000000E+00  0.00000000E+00
  0.00000000E+00  0.00000000E+00  0.00000000E+00  0.00000000E+00  0.00000000E+00
  0.00000000E+00  0.00000000E+00  0.00000000E+00  0.00000000E+00  0.00000000E+00
  0.00000000E+00  0.00000000E+00  0.00000000E+00  0.00000000E+00  0.00000000E+00
  1.94722482E-02  0.00000000E+00  0.00000000E+00  3.37269233E-02  0.00000000E+00
  0.00000000E+00  0.00000000E+00  0.00000000E+00  0.00000000E+00  0.00000000E+00
  0.00000000E+00  0.00000000E+00 -1.73150840E-02  0.00000000E+00  0.00000000E+00
 -1.05393842E-01  0.00000000E+00  0.00000000E+00 -1.85537836E-01  0.00000000E+00
  0.00000000E+00  2.53945865E-01  0.00000000E+00  0.00000000E+00  6.20483165E-01
  0.00000000E+00  0.00000000E+00  2.86835890E-01  0.00000000E+00  0.00000000E+00
  0.00000000E+00  0.00000000E+00  0.00000000E+00  0.00000000E+00  0.00000000E+00
  0.00000000E+00  0.00000000E+00  0.00000000E+00  0.00000000E+00  0.00000000E+00
  0.00000000E+00  0.00000000E+00  0.00000000E+00  0.00000000E+00 -1.73150840E-02
  0.00000000E+00  0.00000000E+00 -1.05393842E-01  0.00000000E+00  0.00000000E+00
 -1.85537836E-01  0.00000000E+00  0.00000000E+00  2.53945865E-01  0.00000000E+00
  0.00000000E+00  6.20483165E-01  0.00000000E+00  0.00000000E+00  2.86835890E-01
  0.00000000E+00  0.00000000E+00  0.00000000E+00  0.00000000E+00  0.00000000E+00