fubar                                                                   
SP        UPBE1PBE                                                    6-311+G(d,p)        
Number of atoms                            I                1
Info1-9                                    I   N=           9
          11          10           0           0           0         110
           1          18       -1302
Full Title                                 C   N=           1
fubar       
Route                                      C   N=           3
#PBE1PBE/6-311+G(d,p) scf=tight     
Charge                                     I                2
Multiplicity                               I                4
Number of electrons                        I                7
Number of alpha electrons                  I                5
Number of beta electrons                   I                2
Number of basis functions                  I               22
Number of independent functions            I               22
Number of point charges in /Mol/           I                0
Number of translation vectors              I                0
Atomic numbers                             I   N=           1
           9
Nuclear charges                            R   N=           1
  9.00000000E+00
Current cartesian coordinates              R   N=           3
  0.00000000E+00  0.00000000E+00  0.00000000E+00
Number of symbols in /Mol/                 I                0
Int Atom Types                             I   N=           1
           0
Force Field                                I                0
Atom Types                                 C   N=           1
            
MM charges                                 R   N=           1
  0.00000000E+00
Integer atomic weights                     I   N=           1
          19
Real atomic weights                        R   N=           1
  1.89984032E+01
Atom fragment info                         I   N=           1
           0
Atom residue num                           I   N=           1
           0
Nuclear spins                              I   N=           1
           1
Nuclear ZEff                               R   N=           1
 -6.75000000E+00
Nuclear ZNuc                               R   N=           1
  9.00000000E+00
Nuclear QMom                               R   N=           1
  0.00000000E+00
Nuclear GFac                               R   N=           1
  2.62886700E+00
MicOpt                                     I   N=           1
          -1
Number of residues                         I                0
Number of secondary structures             I                0
SymInf integers                            I   N=          26
           1           8           1           1           1           1
          -1          -1          -1           1          -1          -1
          -1           1          -1          -1          -1          -1
           1           1           1          -1           1           1
           1          -1
RotTr to input orientation                 R   N=          12
  0.00000000E+00  0.00000000E+00 -1.00000000E+00  0.00000000E+00  1.00000000E+00
  0.00000000E+00  1.00000000E+00  0.00000000E+00  0.00000000E+00  0.00000000E+00
  0.00000000E+00  0.00000000E+00
Number of contracted shells                I                6
Number of primitive shells                 I               13
Pure/Cartesian d shells                    I                0
Pure/Cartesian f shells                    I                0
Highest angular momentum                   I                2
Largest degree of contraction              I                6
Shell types                                I   N=           6
           0          -1          -1          -1          -1          -2
Number of primitives per shell             I   N=           6
           6           3           1           1           1           1
Shell to atom map                          I   N=           6
           1           1           1           1           1           1
Primitive exponents                        R   N=          13
  1.14271000E+04  1.72235000E+03  3.95746000E+02  1.15139000E+02  3.36026000E+01
  4.91901000E+00  5.54441000E+01  1.26323000E+01  3.71756000E+00  1.16545000E+00
  3.21892000E-01  1.07600000E-01  1.75000000E+00
Contraction coefficients                   R   N=          13
  1.80093016E-03  1.37419012E-02  6.81334059E-02  2.33325020E-01  5.89086051E-01
  2.99505026E-01  1.14536016E-01  9.20512125E-01 -3.37804046E-03  1.00000000E+00
  1.00000000E+00  1.00000000E+00  1.00000000E+00
P(S=P) Contraction coefficients            R   N=          13
  0.00000000E+00  0.00000000E+00  0.00000000E+00  0.00000000E+00  0.00000000E+00
  0.00000000E+00  3.54608874E-02  2.37450915E-01  8.20457708E-01  1.00000000E+00
  1.00000000E+00  1.00000000E+00  0.00000000E+00
Coordinates of each shell                  R   N=          18
  0.00000000E+00  0.00000000E+00  0.00000000E+00  0.00000000E+00  0.00000000E+00
  0.00000000E+00  0.00000000E+00  0.00000000E+00  0.00000000E+00  0.00000000E+00
  0.00000000E+00  0.00000000E+00  0.00000000E+00  0.00000000E+00  0.00000000E+00
  0.00000000E+00  0.00000000E+00  0.00000000E+00
Num ILSW                                   I              100
ILSW                                       I   N=         100
           1           0           0           0           2           0
           0           0           0           0        1009          -1
           5           0           0           0           0           0
           0           0           0           0           0           0
           1           0           0           0           0           0
           0           0      100000           0          -1           0
           0           0           0           0           0           0
           0           0           0           1           0           0
           0 -2000000000           1           0           0           0
           0           0           4          52           0           0
           0           0          13           0           0           0
           0           0           0           1           0           1
           0           0           0           0           0           0
           0           0           0           0           0           0
           0           0           0           0           0           0
           0           0           0           0           0           0
           0           0           0           0
Num RLSW                                   I               52
RLSW                                       R   N=          52
  7.50000000E-01  7.50000000E-01  1.00000000E+00  1.00000000E+00  2.50000000E-01
  0.00000000E+00  0.00000000E+00  1.00000000E+00  0.00000000E+00  0.00000000E+00
  0.00000000E+00  0.00000000E+00  1.00000000E+00  0.00000000E+00  0.00000000E+00
  0.00000000E+00  0.00000000E+00  1.00000000E+00  0.00000000E+00  0.00000000E+00
  0.00000000E+00  0.00000000E+00  1.00000000E+00  0.00000000E+00  0.00000000E+00
  0.00000000E+00  0.00000000E+00  1.00000000E+00  0.00000000E+00  0.00000000E+00
  0.00000000E+00  0.00000000E+00  1.00000000E+00  0.00000000E+00  0.00000000E+00
  0.00000000E+00  0.00000000E+00  0.00000000E+00  1.00000000E+00  1.00000000E+00
  0.00000000E+00  1.00000000E+00  0.00000000E+00  0.00000000E+00  0.00000000E+00
  0.00000000E+00  0.00000000E+00  0.00000000E+00  0.00000000E+00  0.00000000E+00
  0.00000000E+00  0.00000000E+00
MxBond                                     I                1
NBond                                      I   N=           1
           0
IBond                                      I   N=           1
           0
RBond                                      R   N=           1
  0.00000000E+00
Virial Ratio                               R      2.000948039148844E+00
SCF Energy                                 R     -9.772973054163182E+01
Total Energy                               R     -9.772973054163182E+01
S**2                                       R      3.751689416716697E+00
S**2 after annihilation                    R      3.750000001879241E+00
RMS Density                                R      3.803692965468766E-09
Job Status                                 I                1
Nuclear derivative order                   I                0
External E-field                           R   N=          35
  0.00000000E+00  0.00000000E+00  0.00000000E+00  0.00000000E+00  0.00000000E+00
  0.00000000E+00  0.00000000E+00  0.00000000E+00  0.00000000E+00  0.00000000E+00
  0.00000000E+00  0.00000000E+00  0.00000000E+00  0.00000000E+00  0.00000000E+00
  0.00000000E+00  0.00000000E+00  0.00000000E+00  0.00000000E+00  0.00000000E+00
  0.00000000E+00  0.00000000E+00  0.00000000E+00  0.00000000E+00  0.00000000E+00
  0.00000000E+00  0.00000000E+00  0.00000000E+00  0.00000000E+00  0.00000000E+00
  0.00000000E+00  0.00000000E+00  0.00000000E+00  0.00000000E+00  0.00000000E+00
IOpCl                                      I                1
IROHF                                      I                0
Alpha Orbital Energies                     R   N=          22
 -2.66048521E+01 -2.75372499E+00 -2.01380194E+00 -2.01380194E+00 -2.01380194E+00
 -5.51949343E-01 -4.17195037E-01 -4.17195037E-01 -4.17195037E-01  2.72139792E-01
  2.72139792E-01  2.72139792E-01  4.62457393E-01  2.23016575E+00  2.23016575E+00
  2.23016575E+00  2.23016575E+00  2.23016575E+00  4.70514380E+00  4.70514380E+00
  4.70514380E+00  6.50041580E+01
Beta Orbital Energies                      R   N=          22
 -2.64824654E+01 -2.40816807E+00 -1.51858984E+00 -1.51858984E+00 -1.51858984E+00
 -5.04409005E-01 -3.71175872E-01 -3.71175872E-01 -3.71175872E-01  3.65780573E-01
  3.65780573E-01  3.65780573E-01  5.74338329E-01  2.49471312E+00  2.49471312E+00
  2.49471312E+00  2.49471312E+00  2.49471312E+00  4.92671152E+00  4.92671152E+00
  4.92671152E+00  6.51090380E+01
Alpha MO coefficients                      R   N=         484
  5.46860100E-01  4.72614037E-01  0.00000000E+00  0.00000000E+00  0.00000000E+00
  1.20683232E-02  0.00000000E+00  0.00000000E+00  0.00000000E+00 -5.26564026E-03
  0.00000000E+00  0.00000000E+00  0.00000000E+00  1.97322071E-03  0.00000000E+00
  0.00000000E+00  0.00000000E+00  1.39971855E-16  0.00000000E+00  0.00000000E+00
 -1.35823222E-17  0.00000000E+00 -1.44142408E-01 -2.37802821E-01  0.00000000E+00
  0.00000000E+00  0.00000000E+00  8.07693486E-01  0.00000000E+00  0.00000000E+00
  0.00000000E+00  3.42479099E-01  0.00000000E+00  0.00000000E+00  0.00000000E+00
 -3.91312593E-02  0.00000000E+00  0.00000000E+00  0.00000000E+00  4.55583801E-17
  0.00000000E+00  0.00000000E+00 -2.70123441E-16  0.00000000E+00  0.00000000E+00
  0.00000000E+00  4.00109943E-01  0.00000000E+00  0.00000000E+00  0.00000000E+00
  5.71343278E-01  0.00000000E+00  0.00000000E+00  0.00000000E+00  2.30694001E-01
  0.00000000E+00  0.00000000E+00  0.00000000E+00 -2.41343413E-02  0.00000000E+00
  0.00000000E+00  0.00000000E+00  0.00000000E+00  0.00000000E+00  0.00000000E+00
  0.00000000E+00  0.00000000E+00  0.00000000E+00  0.00000000E+00  4.00109943E-01
  0.00000000E+00  0.00000000E+00  0.00000000E+00  5.71343278E-01  0.00000000E+00
  0.00000000E+00  0.00000000E+00  2.30694001E-01  0.00000000E+00  0.00000000E+00
  0.00000000E+00 -2.41343413E-02  0.00000000E+00  0.00000000E+00  0.00000000E+00
  0.00000000E+00  0.00000000E+00  0.00000000E+00  0.00000000E+00  0.00000000E+00
  0.00000000E+00  0.00000000E+00  4.00109943E-01  0.00000000E+00  0.00000000E+00
  0.00000000E+00  5.71343278E-01  0.00000000E+00  0.00000000E+00  0.00000000E+00
  2.30694001E-01  0.00000000E+00  0.00000000E+00  0.00000000E+00 -2.41343413E-02
  0.00000000E+00  0.00000000E+00  0.00000000E+00  0.00000000E+00  0.00000000E+00
  4.94864982E-02  8.77999186E-02  0.00000000E+00  0.00000000E+00  0.00000000E+00
 -4.40510644E-01  0.00000000E+00  0.00000000E+00  0.00000000E+00 -3.63772661E-01
  0.00000000E+00  0.00000000E+00  0.00000000E+00  1.30035999E+00  0.00000000E+00
  0.00000000E+00  0.00000000E+00  1.77758185E-16  0.00000000E+00  0.00000000E+00
 -1.68653075E-16  0.00000000E+00  0.00000000E+00  0.00000000E+00 -1.44096874E-01
  0.00000000E+00  0.00000000E+00  0.00000000E+00 -2.24057280E-01  0.00000000E+00
  0.00000000E+00  0.00000000E+00  7.27863566E-02  0.00000000E+00  0.00000000E+00
  0.00000000E+00  9.62025297E-01  0.00000000E+00  0.00000000E+00  0.00000000E+00
  0.00000000E+00  0.00000000E+00  0.00000000E+00  0.00000000E+00  0.00000000E+00
  0.00000000E+00  0.00000000E+00 -1.44096874E-01  0.00000000E+00  0.00000000E+00
  0.00000000E+00 -2.24057280E-01  0.00000000E+00  0.00000000E+00  0.00000000E+00
  7.27863566E-02  0.00000000E+00  0.00000000E+00  0.00000000E+00  9.62025297E-01
  0.00000000E+00  0.00000000E+00  0.00000000E+00  0.00000000E+00  0.00000000E+00
  0.00000000E+00  0.00000000E+00  0.00000000E+00  0.00000000E+00  0.00000000E+00
 -1.44096874E-01  0.00000000E+00  0.00000000E+00  0.00000000E+00 -2.24057280E-01
  0.00000000E+00  0.00000000E+00  0.00000000E+00  7.27863566E-02  0.00000000E+00
  0.00000000E+00  0.00000000E+00  9.62025297E-01  0.00000000E+00  0.00000000E+00
  0.00000000E+00  0.00000000E+00  0.00000000E+00  0.00000000E+00  0.00000000E+00
  0.00000000E+00 -2.45421405E-01  0.00000000E+00  0.00000000E+00  0.00000000E+00
 -5.98653340E-01  0.00000000E+00  0.00000000E+00  0.00000000E+00  1.69409925E+00
  0.00000000E+00  0.00000000E+00  0.00000000E+00 -1.11379951E+00  0.00000000E+00
  0.00000000E+00  0.00000000E+00  0.00000000E+00  0.00000000E+00  0.00000000E+00
  0.00000000E+00  0.00000000E+00 -2.45421405E-01  0.00000000E+00  0.00000000E+00
  0.00000000E+00 -5.98653340E-01  0.00000000E+00  0.00000000E+00  0.00000000E+00
  1.69409925E+00  0.00000000E+00  0.00000000E+00  0.00000000E+00 -1.11379951E+00
  0.00000000E+00  0.00000000E+00  0.00000000E+00  0.00000000E+00  0.00000000E+00
  0.00000000E+00  0.00000000E+00  0.00000000E+00  0.00000000E+00  0.00000000E+00
  0.00000000E+00 -2.45421405E-01  0.00000000E+00  0.00000000E+00  0.00000000E+00
 -5.98653340E-01  0.00000000E+00  0.00000000E+00  0.00000000E+00  1.69409925E+00
  0.00000000E+00  0.00000000E+00  0.00000000E+00 -1.11379951E+00  0.00000000E+00
  0.00000000E+00  0.00000000E+00  0.00000000E+00  0.00000000E+00  1.05010107E-01
  2.07206022E-01  0.00000000E+00  0.00000000E+00  0.00000000E+00 -1.64169836E+00
  0.00000000E+00  0.00000000E+00  0.00000000E+00  2.65715836E+00  0.00000000E+00
  0.00000000E+00  0.00000000E+00 -1.44166527E+00  0.00000000E+00  0.00000000E+00
  0.00000000E+00  2.19944807E-16  0.00000000E+00  0.00000000E+00 -7.39034078E-16
  0.00000000E+00  0.00000000E+00  0.00000000E+00  0.00000000E+00  0.00000000E+00
  0.00000000E+00  0.00000000E+00  0.00000000E+00  0.00000000E+00  0.00000000E+00
  0.00000000E+00  0.00000000E+00  0.00000000E+00  0.00000000E+00  0.00000000E+00
  0.00000000E+00  0.00000000E+00  0.00000000E+00  0.00000000E+00  1.00000000E+00
  0.00000000E+00  0.00000000E+00  0.00000000E+00  0.00000000E+00  0.00000000E+00
  0.00000000E+00  0.00000000E+00  0.00000000E+00  0.00000000E+00  0.00000000E+00
  0.00000000E+00  0.00000000E+00  0.00000000E+00  0.00000000E+00  0.00000000E+00
  0.00000000E+00  0.00000000E+00  0.00000000E+00  0.00000000E+00  0.00000000E+00
  0.00000000E+00  0.00000000E+00  1.00000000E+00  0.00000000E+00  0.00000000E+00
  0.00000000E+00  0.00000000E+00  0.00000000E+00  0.00000000E+00  0.00000000E+00
  0.00000000E+00  0.00000000E+00  0.00000000E+00  0.00000000E+00  0.00000000E+00
  0.00000000E+00  0.00000000E+00  0.00000000E+00  0.00000000E+00  0.00000000E+00
  0.00000000E+00  0.00000000E+00  0.00000000E+00  0.00000000E+00  0.00000000E+00
  0.00000000E+00  1.00000000E+00 -3.15447401E-17 -1.00348419E-16  0.00000000E+00
  0.00000000E+00  0.00000000E+00  1.04318944E-15  0.00000000E+00  0.00000000E+00
  0.00000000E+00 -1.78644034E-15  0.00000000E+00  0.00000000E+00  0.00000000E+00
  8.45467045E-16  0.00000000E+00  0.00000000E+00  0.00000000E+00  9.99810003E-01
  0.00000000E+00  0.00000000E+00 -1.94924902E-02  0.00000000E+00  2.18989882E-16
  3.58224795E-16  0.00000000E+00  0.00000000E+00  0.00000000E+00 -1.72917429E-15
  0.00000000E+00  0.00000000E+00  0.00000000E+00  9.30421001E-16  0.00000000E+00
  0.00000000E+00  0.00000000E+00  6.74104174E-17  0.00000000E+00  0.00000000E+00
  0.00000000E+00  1.94924902E-02  0.00000000E+00  0.00000000E+00  9.99810003E-01
  0.00000000E+00  0.00000000E+00  0.00000000E+00  0.00000000E+00 -1.23847352E+00
  0.00000000E+00  0.00000000E+00  0.00000000E+00  1.54135806E+00  0.00000000E+00
  0.00000000E+00  0.00000000E+00 -9.21132552E-01  0.00000000E+00  0.00000000E+00
  0.00000000E+00  3.55609330E-01  0.00000000E+00  0.00000000E+00  0.00000000E+00
  0.00000000E+00  0.00000000E+00  0.00000000E+00  0.00000000E+00  0.00000000E+00
 -1.23847352E+00  0.00000000E+00  0.00000000E+00  0.00000000E+00  1.54135806E+00
  0.00000000E+00  0.00000000E+00  0.00000000E+00 -9.21132552E-01  0.00000000E+00
  0.00000000E+00  0.00000000E+00  3.55609330E-01  0.00000000E+00  0.00000000E+00
  0.00000000E+00  0.00000000E+00  0.00000000E+00  0.00000000E+00  0.00000000E+00
  0.00000000E+00  0.00000000E+00  0.00000000E+00  0.00000000E+00 -1.23847352E+00
  0.00000000E+00  0.00000000E+00  0.00000000E+00  1.54135806E+00  0.00000000E+00
  0.00000000E+00  0.00000000E+00 -9.21132552E-01  0.00000000E+00  0.00000000E+00
  0.00000000E+00  3.55609330E-01  0.00000000E+00  0.00000000E+00  0.00000000E+00
  0.00000000E+00  0.00000000E+00 -2.32578327E+00  2.39285405E+00  0.00000000E+00
  0.00000000E+00  0.00000000E+00 -1.97730892E-01  0.00000000E+00  0.00000000E+00
  0.00000000E+00  1.96778762E-01  0.00000000E+00  0.00000000E+00  0.00000000E+00
 -8.08790510E-02  0.00000000E+00  0.00000000E+00  0.00000000E+00  2.57254655E-17
  0.00000000E+00  0.00000000E+00 -7.90553297E-18  0.00000000E+00
Beta MO coefficients                       R   N=         484
  5.49388525E-01  4.71824418E-01  0.00000000E+00  0.00000000E+00  0.00000000E+00
  6.79601390E-03  0.00000000E+00  0.00000000E+00  0.00000000E+00 -2.72432885E-03
  0.00000000E+00  0.00000000E+00  0.00000000E+00  9.88461018E-04  0.00000000E+00
  0.00000000E+00  0.00000000E+00  5.04428516E-17  0.00000000E+00  0.00000000E+00
  1.77362421E-17  0.00000000E+00 -1.38887430E-01 -2.26630165E-01  0.00000000E+00
  0.00000000E+00  0.00000000E+00  7.47444162E-01  0.00000000E+00  0.00000000E+00
  0.00000000E+00  4.06521402E-01  0.00000000E+00  0.00000000E+00  0.00000000E+00
 -4.11470234E-02  0.00000000E+00  0.00000000E+00  0.00000000E+00 -1.98758379E-16
  0.00000000E+00  0.00000000E+00  6.95691349E-18  0.00000000E+00  0.00000000E+00
  0.00000000E+00  3.65911136E-01  0.00000000E+00  0.00000000E+00  0.00000000E+00
  5.35864435E-01  0.00000000E+00  0.00000000E+00  0.00000000E+00  3.18380693E-01
  0.00000000E+00  0.00000000E+00  0.00000000E+00 -2.07939912E-02  0.00000000E+00
  0.00000000E+00  0.00000000E+00  0.00000000E+00  0.00000000E+00  0.00000000E+00
  0.00000000E+00  0.00000000E+00  0.00000000E+00  0.00000000E+00  0.00000000E+00
  3.65911136E-01  0.00000000E+00  0.00000000E+00  0.00000000E+00  5.35864435E-01
  0.00000000E+00  0.00000000E+00  0.00000000E+00  3.18380693E-01  0.00000000E+00
  0.00000000E+00  0.00000000E+00 -2.07939912E-02  0.00000000E+00  0.00000000E+00
  0.00000000E+00  0.00000000E+00  0.00000000E+00  0.00000000E+00  0.00000000E+00
  0.00000000E+00  3.65911136E-01  0.00000000E+00  0.00000000E+00  0.00000000E+00
  5.35864435E-01  0.00000000E+00  0.00000000E+00  0.00000000E+00  3.18380693E-01
  0.00000000E+00  0.00000000E+00  0.00000000E+00 -2.07939912E-02  0.00000000E+00
  0.00000000E+00  0.00000000E+00  0.00000000E+00  0.00000000E+00  0.00000000E+00
  4.85843697E-02  8.44790703E-02  0.00000000E+00  0.00000000E+00  0.00000000E+00
 -3.88915416E-01  0.00000000E+00  0.00000000E+00  0.00000000E+00 -4.92744215E-01
  0.00000000E+00  0.00000000E+00  0.00000000E+00  1.36458583E+00  0.00000000E+00
  0.00000000E+00  0.00000000E+00  9.68812404E-17  0.00000000E+00  0.00000000E+00
  8.69532172E-17  0.00000000E+00  0.00000000E+00  0.00000000E+00 -1.43128133E-01
  0.00000000E+00  0.00000000E+00  0.00000000E+00 -2.23945252E-01  0.00000000E+00
  0.00000000E+00  0.00000000E+00 -5.36190436E-02  0.00000000E+00  0.00000000E+00
  0.00000000E+00  1.03478153E+00  0.00000000E+00  0.00000000E+00  0.00000000E+00
  0.00000000E+00  0.00000000E+00  0.00000000E+00  0.00000000E+00  0.00000000E+00
  0.00000000E+00  0.00000000E+00 -1.43128133E-01  0.00000000E+00  0.00000000E+00
  0.00000000E+00 -2.23945252E-01  0.00000000E+00  0.00000000E+00  0.00000000E+00
 -5.36190436E-02  0.00000000E+00  0.00000000E+00  0.00000000E+00  1.03478153E+00
  0.00000000E+00  0.00000000E+00  0.00000000E+00  0.00000000E+00  0.00000000E+00
  0.00000000E+00  0.00000000E+00  0.00000000E+00  0.00000000E+00  0.00000000E+00
 -1.43128133E-01  0.00000000E+00  0.00000000E+00  0.00000000E+00 -2.23945252E-01
  0.00000000E+00  0.00000000E+00  0.00000000E+00 -5.36190436E-02  0.00000000E+00
  0.00000000E+00  0.00000000E+00  1.03478153E+00  0.00000000E+00  0.00000000E+00
  0.00000000E+00  0.00000000E+00  0.00000000E+00  0.00000000E+00  0.00000000E+00
  0.00000000E+00 -2.56374714E-01  0.00000000E+00  0.00000000E+00  0.00000000E+00
 -6.70125912E-01  0.00000000E+00  0.00000000E+00  0.00000000E+00  1.69417647E+00
  0.00000000E+00  0.00000000E+00  0.00000000E+00 -1.05049313E+00  0.00000000E+00
  0.00000000E+00  0.00000000E+00  0.00000000E+00  0.00000000E+00  0.00000000E+00
  0.00000000E+00  0.00000000E+00 -2.56374714E-01  0.00000000E+00  0.00000000E+00
  0.00000000E+00 -6.70125912E-01  0.00000000E+00  0.00000000E+00  0.00000000E+00
  1.69417647E+00  0.00000000E+00  0.00000000E+00  0.00000000E+00 -1.05049313E+00
  0.00000000E+00  0.00000000E+00  0.00000000E+00  0.00000000E+00  0.00000000E+00
  0.00000000E+00  0.00000000E+00  0.00000000E+00  0.00000000E+00  0.00000000E+00
  0.00000000E+00 -2.56374714E-01  0.00000000E+00  0.00000000E+00  0.00000000E+00
 -6.70125912E-01  0.00000000E+00  0.00000000E+00  0.00000000E+00  1.69417647E+00
  0.00000000E+00  0.00000000E+00  0.00000000E+00 -1.05049313E+00  0.00000000E+00
  0.00000000E+00  0.00000000E+00  0.00000000E+00  0.00000000E+00  1.10677197E-01
  2.16754562E-01  0.00000000E+00  0.00000000E+00  0.00000000E+00 -1.68271882E+00
  0.00000000E+00  0.00000000E+00  0.00000000E+00  2.62717421E+00  0.00000000E+00
  0.00000000E+00  0.00000000E+00 -1.38097097E+00  0.00000000E+00  0.00000000E+00
  0.00000000E+00 -5.52266735E-16  0.00000000E+00  0.00000000E+00 -2.48321468E-16
  0.00000000E+00  0.00000000E+00  0.00000000E+00  0.00000000E+00  0.00000000E+00
  0.00000000E+00  0.00000000E+00  0.00000000E+00  0.00000000E+00  0.00000000E+00
  0.00000000E+00  0.00000000E+00  0.00000000E+00  0.00000000E+00  0.00000000E+00
  0.00000000E+00  0.00000000E+00  0.00000000E+00  0.00000000E+00  1.00000000E+00
  0.00000000E+00  0.00000000E+00  0.00000000E+00  0.00000000E+00  0.00000000E+00
  0.00000000E+00  0.00000000E+00  0.00000000E+00  0.00000000E+00  0.00000000E+00
  0.00000000E+00  0.00000000E+00  0.00000000E+00  0.00000000E+00  0.00000000E+00
  0.00000000E+00  0.00000000E+00  0.00000000E+00  0.00000000E+00  0.00000000E+00
  0.00000000E+00  0.00000000E+00  1.00000000E+00  0.00000000E+00  0.00000000E+00
  0.00000000E+00  0.00000000E+00  0.00000000E+00  0.00000000E+00  0.00000000E+00
  0.00000000E+00  0.00000000E+00  0.00000000E+00  0.00000000E+00  0.00000000E+00
  0.00000000E+00  0.00000000E+00  0.00000000E+00  0.00000000E+00  0.00000000E+00
  0.00000000E+00  0.00000000E+00  0.00000000E+00  0.00000000E+00  0.00000000E+00
  0.00000000E+00  1.00000000E+00  7.33167696E-17  1.76911528E-16  0.00000000E+00
  0.00000000E+00  0.00000000E+00 -1.50365740E-15  0.00000000E+00  0.00000000E+00
  0.00000000E+00  2.01009460E-15  0.00000000E+00  0.00000000E+00  0.00000000E+00
 -9.65158119E-16  0.00000000E+00  0.00000000E+00  0.00000000E+00  9.99978272E-01
  0.00000000E+00  0.00000000E+00 -6.59204168E-03  0.00000000E+00  4.80577741E-17
  1.31537049E-16  0.00000000E+00  0.00000000E+00  0.00000000E+00 -1.20787270E-15
  0.00000000E+00  0.00000000E+00  0.00000000E+00  1.77661860E-15  0.00000000E+00
  0.00000000E+00  0.00000000E+00 -7.87987385E-16  0.00000000E+00  0.00000000E+00
  0.00000000E+00  6.59204168E-03  0.00000000E+00  0.00000000E+00  9.99978272E-01
  0.00000000E+00  0.00000000E+00  0.00000000E+00 -1.24691442E+00  0.00000000E+00
  0.00000000E+00  0.00000000E+00  1.52460959E+00  0.00000000E+00  0.00000000E+00
  0.00000000E+00 -8.95823549E-01  0.00000000E+00  0.00000000E+00  0.00000000E+00
  3.44007969E-01  0.00000000E+00  0.00000000E+00  0.00000000E+00  0.00000000E+00
  0.00000000E+00  0.00000000E+00  0.00000000E+00  0.00000000E+00  0.00000000E+00
  0.00000000E+00 -1.24691442E+00  0.00000000E+00  0.00000000E+00  0.00000000E+00
  1.52460959E+00  0.00000000E+00  0.00000000E+00  0.00000000E+00 -8.95823549E-01
  0.00000000E+00  0.00000000E+00  0.00000000E+00  3.44007969E-01  0.00000000E+00
  0.00000000E+00  0.00000000E+00  0.00000000E+00  0.00000000E+00  0.00000000E+00
  0.00000000E+00  0.00000000E+00  0.00000000E+00  0.00000000E+00 -1.24691442E+00
  0.00000000E+00  0.00000000E+00  0.00000000E+00  1.52460959E+00  0.00000000E+00
  0.00000000E+00  0.00000000E+00 -8.95823549E-01  0.00000000E+00  0.00000000E+00
  0.00000000E+00  3.44007969E-01  0.00000000E+00  0.00000000E+00  0.00000000E+00
  0.00000000E+00  0.00000000E+00 -2.32526332E+00  2.39336773E+00  0.00000000E+00
  0.00000000E+00  0.00000000E+00 -1.98288299E-01  0.00000000E+00  0.00000000E+00
  0.00000000E+00  1.96861410E-01  0.00000000E+00  0.00000000E+00  0.00000000E+00
 -8.08829388E-02  0.00000000E+00  0.00000000E+00  0.00000000E+00  2.57677421E-17
  0.00000000E+00  0.00000000E+00 -8.64618477E-18  0.00000000E+00
Orthonormal basis                          R   N=         484
  2.43201941E-01  2.48566728E-01  0.00000000E+00  0.00000000E+00  0.00000000E+00
  3.11909684E-01  0.00000000E+00  0.00000000E+00  0.00000000E+00  3.08248900E-01
  0.00000000E+00  0.00000000E+00  0.00000000E+00  2.48713467E-01  0.00000000E+00
  0.00000000E+00  0.00000000E+00 -1.86450083E-17  0.00000000E+00  0.00000000E+00
 -1.65744237E-17  0.00000000E+00  4.33756576E-01  4.30075379E-01  0.00000000E+00
  0.00000000E+00  0.00000000E+00 -8.69081506E-02  0.00000000E+00  0.00000000E+00
  0.00000000E+00 -3.18143230E-01  0.00000000E+00  0.00000000E+00  0.00000000E+00
 -3.50676936E-01  0.00000000E+00  0.00000000E+00  0.00000000E+00  5.04247227E-17
  0.00000000E+00  0.00000000E+00  5.95485801E-17  0.00000000E+00 -6.77808663E-17
 -6.88289112E-17  0.00000000E+00  0.00000000E+00  0.00000000E+00  1.36908280E-16
  0.00000000E+00  0.00000000E+00  0.00000000E+00  1.29363799E-16  0.00000000E+00
  0.00000000E+00  0.00000000E+00 -9.95676482E-17  0.00000000E+00  0.00000000E+00
  0.00000000E+00  5.93254726E-01  0.00000000E+00  0.00000000E+00  8.05014801E-01
  0.00000000E+00 -3.41496546E-29 -1.12034312E-17  0.00000000E+00  0.00000000E+00
  0.00000000E+00  2.47945679E-17  0.00000000E+00  0.00000000E+00  0.00000000E+00
  1.74212799E-17  0.00000000E+00  0.00000000E+00  0.00000000E+00 -2.06756134E-17
  0.00000000E+00  0.00000000E+00  0.00000000E+00  8.05014801E-01  0.00000000E+00
  0.00000000E+00 -5.93254726E-01  0.00000000E+00 -2.80960915E-01 -1.92850672E-01
  0.00000000E+00  0.00000000E+00  0.00000000E+00  1.02585685E+00  0.00000000E+00
  0.00000000E+00  0.00000000E+00  5.78929334E-02  0.00000000E+00  0.00000000E+00
  0.00000000E+00 -8.90798636E-01  0.00000000E+00  0.00000000E+00  0.00000000E+00
 -1.95830849E-16  0.00000000E+00  0.00000000E+00 -1.86469796E-16  0.00000000E+00
  2.00973273E+00 -1.90689255E+00  0.00000000E+00  0.00000000E+00  0.00000000E+00
 -6.29485453E-01  0.00000000E+00  0.00000000E+00  0.00000000E+00  1.28490118E+00
  0.00000000E+00  0.00000000E+00  0.00000000E+00 -8.62468877E-01  0.00000000E+00
  0.00000000E+00  0.00000000E+00 -1.35125723E-16  0.00000000E+00  0.00000000E+00
 -1.05866146E-16  0.00000000E+00 -1.17359287E+00  1.46154954E+00  0.00000000E+00
  0.00000000E+00  0.00000000E+00 -1.42385398E+00  0.00000000E+00  0.00000000E+00
  0.00000000E+00  2.34484702E+00  0.00000000E+00  0.00000000E+00  0.00000000E+00
 -1.43359825E+00  0.00000000E+00  0.00000000E+00  0.00000000E+00 -1.50344135E-16
  0.00000000E+00  0.00000000E+00 -1.72298177E-16  0.00000000E+00  0.00000000E+00
  0.00000000E+00  0.00000000E+00  0.00000000E+00  0.00000000E+00  0.00000000E+00
  0.00000000E+00  0.00000000E+00  0.00000000E+00  0.00000000E+00  0.00000000E+00
  0.00000000E+00  0.00000000E+00  0.00000000E+00  0.00000000E+00  0.00000000E+00
  0.00000000E+00  0.00000000E+00  0.00000000E+00  0.00000000E+00  0.00000000E+00
  1.00000000E+00  0.00000000E+00  0.00000000E+00  0.00000000E+00  0.00000000E+00
  0.00000000E+00  0.00000000E+00  0.00000000E+00  0.00000000E+00  0.00000000E+00
  0.00000000E+00  0.00000000E+00  0.00000000E+00  0.00000000E+00  0.00000000E+00
  0.00000000E+00  0.00000000E+00  0.00000000E+00  0.00000000E+00  1.00000000E+00
  0.00000000E+00  0.00000000E+00  0.00000000E+00  0.00000000E+00  0.00000000E+00
  0.00000000E+00  0.00000000E+00  0.00000000E+00  0.00000000E+00  0.00000000E+00
  0.00000000E+00  0.00000000E+00  0.00000000E+00  0.00000000E+00  0.00000000E+00
  0.00000000E+00  0.00000000E+00  0.00000000E+00  0.00000000E+00  0.00000000E+00
  0.00000000E+00  0.00000000E+00  1.00000000E+00  0.00000000E+00  0.00000000E+00
  0.00000000E+00  0.00000000E+00  0.00000000E+00  0.00000000E+00  2.54113776E-01
  0.00000000E+00  0.00000000E+00  0.00000000E+00  3.72149011E-01  0.00000000E+00
  0.00000000E+00  0.00000000E+00  3.90572601E-01  0.00000000E+00  0.00000000E+00
  0.00000000E+00  2.99308236E-01  0.00000000E+00  0.00000000E+00  0.00000000E+00
  0.00000000E+00  0.00000000E+00  0.00000000E+00  0.00000000E+00  0.00000000E+00
  0.00000000E+00  6.04158525E-01  0.00000000E+00  0.00000000E+00  0.00000000E+00
  3.26994324E-01  0.00000000E+00  0.00000000E+00  0.00000000E+00 -2.97276902E-01