fubar                                                                   
SP        UPBE1PBE                                                    6-311+G(d,p)        
Number of atoms                            I                1
Info1-9                                    I   N=           9
          11          10           0           0           0         110
           1          18       -1302
Full Title                                 C   N=           1
fubar       
Route                                      C   N=           3
#PBE1PBE/6-311+G(d,p) scf=tight     
Charge                                     I                1
Multiplicity                               I                2
Number of electrons                        I                5
Number of alpha electrons                  I                3
Number of beta electrons                   I                2
Number of basis functions                  I               22
Number of independent functions            I               22
Number of point charges in /Mol/           I                0
Number of translation vectors              I                0
Atomic numbers                             I   N=           1
           6
Nuclear charges                            R   N=           1
  6.00000000E+00
Current cartesian coordinates              R   N=           3
  0.00000000E+00  0.00000000E+00  0.00000000E+00
Number of symbols in /Mol/                 I                0
Int Atom Types                             I   N=           1
           0
Force Field                                I                0
Atom Types                                 C   N=           1
            
MM charges                                 R   N=           1
  0.00000000E+00
Integer atomic weights                     I   N=           1
          12
Real atomic weights                        R   N=           1
  1.20000000E+01
Atom fragment info                         I   N=           1
           0
Atom residue num                           I   N=           1
           0
Nuclear spins                              I   N=           1
           0
Nuclear ZEff                               R   N=           1
 -3.60000000E+00
Nuclear ZNuc                               R   N=           1
  6.00000000E+00
Nuclear QMom                               R   N=           1
  0.00000000E+00
Nuclear GFac                               R   N=           1
  0.00000000E+00
MicOpt                                     I   N=           1
          -1
Number of residues                         I                0
Number of secondary structures             I                0
SymInf integers                            I   N=          26
           1           8           1           1           1           1
          -1          -1          -1           1          -1          -1
          -1           1          -1          -1          -1          -1
           1           1           1          -1           1           1
           1          -1
RotTr to input orientation                 R   N=          12
  0.00000000E+00  0.00000000E+00 -1.00000000E+00  0.00000000E+00  1.00000000E+00
  0.00000000E+00  1.00000000E+00  0.00000000E+00  0.00000000E+00  0.00000000E+00
  0.00000000E+00  0.00000000E+00
Number of contracted shells                I                6
Number of primitive shells                 I               13
Pure/Cartesian d shells                    I                0
Pure/Cartesian f shells                    I                0
Highest angular momentum                   I                2
Largest degree of contraction              I                6
Shell types                                I   N=           6
           0          -1          -1          -1          -1          -2
Number of primitives per shell             I   N=           6
           6           3           1           1           1           1
Shell to atom map                          I   N=           6
           1           1           1           1           1           1
Primitive exponents                        R   N=          13
  4.56324000E+03  6.82024000E+02  1.54973000E+02  4.44553000E+01  1.30290000E+01
  1.82773000E+00  2.09642000E+01  4.80331000E+00  1.45933000E+00  4.83456000E-01
  1.45585000E-01  4.38000000E-02  6.26000000E-01
Contraction coefficients                   R   N=          13
  1.96665025E-03  1.52306019E-02  7.61269097E-02  2.60801033E-01  6.16462078E-01
  2.21006028E-01  1.14660081E-01  9.19999648E-01 -3.03068213E-03  1.00000000E+00
  1.00000000E+00  1.00000000E+00  1.00000000E+00
P(S=P) Contraction coefficients            R   N=          13
  0.00000000E+00  0.00000000E+00  0.00000000E+00  0.00000000E+00  0.00000000E+00
  0.00000000E+00  4.02486927E-02  2.37593957E-01  8.15853851E-01  1.00000000E+00
  1.00000000E+00  1.00000000E+00  0.00000000E+00
Coordinates of each shell                  R   N=          18
  0.00000000E+00  0.00000000E+00  0.00000000E+00  0.00000000E+00  0.00000000E+00
  0.00000000E+00  0.00000000E+00  0.00000000E+00  0.00000000E+00  0.00000000E+00
  0.00000000E+00  0.00000000E+00  0.00000000E+00  0.00000000E+00  0.00000000E+00
  0.00000000E+00  0.00000000E+00  0.00000000E+00
Num ILSW                                   I              100
ILSW                                       I   N=         100
           1           0           0           0           2           0
           0           0           0           0        1009          -1
           5           0           0           0           0           0
           0           0           0           0           0           0
           1           0           0           0           0           0
           0           0      100000           0          -1           0
           0           0           0           0           0           0
           0           0           0           1           0           0
           0 -2000000000           1           0           0           0
           0           1           4          52           0           0
           0           0          13           0           0           0
           0           0           0           1           0           1
           0           0           0           0           0           0
           0           0           0           0           0           0
           0           0           0           0           0           0
           0           0           0           0           0           0
           0           0           0           0
Num RLSW                                   I               52
RLSW                                       R   N=          52
  7.50000000E-01  7.50000000E-01  1.00000000E+00  1.00000000E+00  2.50000000E-01
  0.00000000E+00  0.00000000E+00  1.00000000E+00  0.00000000E+00  0.00000000E+00
  0.00000000E+00  0.00000000E+00  1.00000000E+00  0.00000000E+00  0.00000000E+00
  0.00000000E+00  0.00000000E+00  1.00000000E+00  0.00000000E+00  0.00000000E+00
  0.00000000E+00  0.00000000E+00  1.00000000E+00  0.00000000E+00  0.00000000E+00
  0.00000000E+00  0.00000000E+00  1.00000000E+00  0.00000000E+00  0.00000000E+00
  0.00000000E+00  0.00000000E+00  1.00000000E+00  0.00000000E+00  0.00000000E+00
  0.00000000E+00  0.00000000E+00  0.00000000E+00  1.00000000E+00  1.00000000E+00
  0.00000000E+00  1.00000000E+00  0.00000000E+00  0.00000000E+00  0.00000000E+00
  0.00000000E+00  0.00000000E+00  0.00000000E+00  0.00000000E+00  0.00000000E+00
  0.00000000E+00  0.00000000E+00
MxBond                                     I                1
NBond                                      I   N=           1
           0
IBond                                      I   N=           1
           0
RBond                                      R   N=           1
  0.00000000E+00
Virial Ratio                               R      2.001361368568864E+00
SCF Energy                                 R     -3.737975441327710E+01
Total Energy                               R     -3.737975441327710E+01
S**2                                       R      7.522623997101661E-01
S**2 after annihilation                    R      7.500000012633361E-01
RMS Density                                R      1.576361284169251E-09
Job Status                                 I                1
Nuclear derivative order                   I                0
External E-field                           R   N=          35
  0.00000000E+00  0.00000000E+00  0.00000000E+00  0.00000000E+00  0.00000000E+00
  0.00000000E+00  0.00000000E+00  0.00000000E+00  0.00000000E+00  0.00000000E+00
  0.00000000E+00  0.00000000E+00  0.00000000E+00  0.00000000E+00  0.00000000E+00
  0.00000000E+00  0.00000000E+00  0.00000000E+00  0.00000000E+00  0.00000000E+00
  0.00000000E+00  0.00000000E+00  0.00000000E+00  0.00000000E+00  0.00000000E+00
  0.00000000E+00  0.00000000E+00  0.00000000E+00  0.00000000E+00  0.00000000E+00
  0.00000000E+00  0.00000000E+00  0.00000000E+00  0.00000000E+00  0.00000000E+00
IOpCl                                      I                1
IROHF                                      I                0
Alpha Orbital Energies                     R   N=          22
 -1.09211729E+01 -1.03398360E+00 -7.26630787E-01 -5.66850902E-01 -5.66850902E-01
 -1.68748259E-01 -1.15015640E-01 -1.07864680E-01 -1.07864680E-01  2.19138748E-01
  2.34821640E-01  2.34821640E-01  3.09258138E-01  8.43920728E-01  8.43920728E-01
  8.50130787E-01  8.67703135E-01  8.67703150E-01  2.17547101E+00  2.20437472E+00
  2.20437472E+00  2.26891362E+01
Beta Orbital Energies                      R   N=          22
 -1.09012053E+01 -9.63640168E-01 -5.46746509E-01 -5.46746509E-01 -4.77849419E-01
 -1.55930587E-01 -1.02038138E-01 -1.02038138E-01 -9.12126625E-02  2.43866435E-01
  2.43866435E-01  2.74897701E-01  3.36298960E-01  8.73841753E-01  8.73841754E-01
  9.26273572E-01  9.26273572E-01  9.42947374E-01  2.21657104E+00  2.21657104E+00
  2.27362882E+00  2.27060641E+01
Alpha MO coefficients                      R   N=         484
  5.62797018E-01  4.65215676E-01  0.00000000E+00  0.00000000E+00  0.00000000E+00
  1.11222519E-02  0.00000000E+00  0.00000000E+00  0.00000000E+00 -5.63280568E-03
  0.00000000E+00  0.00000000E+00  0.00000000E+00  1.90679226E-03  0.00000000E+00
  0.00000000E+00  0.00000000E+00  5.95205573E-04  0.00000000E+00  0.00000000E+00
  3.42405030E-16  0.00000000E+00 -1.39535368E-01 -2.26715413E-01  0.00000000E+00
  0.00000000E+00  0.00000000E+00  7.32722985E-01  0.00000000E+00  0.00000000E+00
  0.00000000E+00  4.07257169E-01  0.00000000E+00  0.00000000E+00  0.00000000E+00
 -2.89654313E-02  0.00000000E+00  0.00000000E+00  0.00000000E+00  1.50949795E-02
  0.00000000E+00  0.00000000E+00 -1.16445878E-16  0.00000000E+00  0.00000000E+00
  0.00000000E+00  0.00000000E+00  0.00000000E+00  3.51060015E-01  0.00000000E+00
  0.00000000E+00  0.00000000E+00  5.47100864E-01  0.00000000E+00  0.00000000E+00
  0.00000000E+00  2.95463826E-01  0.00000000E+00  0.00000000E+00  0.00000000E+00
 -1.28199774E-02  0.00000000E+00  0.00000000E+00  0.00000000E+00  0.00000000E+00
  0.00000000E+00  0.00000000E+00  0.00000000E+00  0.00000000E+00  3.22817608E-01
  0.00000000E+00  0.00000000E+00  0.00000000E+00  5.20442199E-01  0.00000000E+00
  0.00000000E+00  0.00000000E+00  3.52962371E-01  0.00000000E+00  0.00000000E+00
  0.00000000E+00 -1.79294572E-03  0.00000000E+00  0.00000000E+00  0.00000000E+00
  0.00000000E+00  0.00000000E+00  0.00000000E+00  0.00000000E+00  0.00000000E+00
  3.22817608E-01  0.00000000E+00  0.00000000E+00  0.00000000E+00  5.20442199E-01
  0.00000000E+00  0.00000000E+00  0.00000000E+00  3.52962371E-01  0.00000000E+00
  0.00000000E+00  0.00000000E+00 -1.79294572E-03  0.00000000E+00  0.00000000E+00
  0.00000000E+00  0.00000000E+00  0.00000000E+00  0.00000000E+00  0.00000000E+00
  4.76153280E-02  8.25666880E-02  0.00000000E+00  0.00000000E+00  0.00000000E+00
 -3.70552114E-01  0.00000000E+00  0.00000000E+00  0.00000000E+00 -4.60720819E-01
  0.00000000E+00  0.00000000E+00  0.00000000E+00  1.32214151E+00  0.00000000E+00
  0.00000000E+00  0.00000000E+00 -3.22088686E-03  0.00000000E+00  0.00000000E+00
  7.66292042E-16  0.00000000E+00  0.00000000E+00  0.00000000E+00  0.00000000E+00
  0.00000000E+00 -1.27261082E-01  0.00000000E+00  0.00000000E+00  0.00000000E+00
 -2.12856233E-01  0.00000000E+00  0.00000000E+00  0.00000000E+00 -4.66981839E-02
  0.00000000E+00  0.00000000E+00  0.00000000E+00  1.03150253E+00  0.00000000E+00
  0.00000000E+00  0.00000000E+00  0.00000000E+00  0.00000000E+00  0.00000000E+00
  0.00000000E+00 -1.30802392E-01  0.00000000E+00  0.00000000E+00  0.00000000E+00
 -2.23219115E-01  0.00000000E+00  0.00000000E+00  0.00000000E+00 -1.00720760E-01
  0.00000000E+00  0.00000000E+00  0.00000000E+00  1.05457185E+00  0.00000000E+00
  0.00000000E+00  0.00000000E+00  0.00000000E+00  0.00000000E+00  0.00000000E+00
  0.00000000E+00  0.00000000E+00  0.00000000E+00  0.00000000E+00 -1.30802392E-01
  0.00000000E+00  0.00000000E+00  0.00000000E+00 -2.23219115E-01  0.00000000E+00
  0.00000000E+00  0.00000000E+00 -1.00720760E-01  0.00000000E+00  0.00000000E+00
  0.00000000E+00  1.05457185E+00  0.00000000E+00  0.00000000E+00  0.00000000E+00
  0.00000000E+00  0.00000000E+00  0.00000000E+00  0.00000000E+00  0.00000000E+00
  0.00000000E+00  0.00000000E+00 -2.45897507E-01  0.00000000E+00  0.00000000E+00
  0.00000000E+00 -7.43434399E-01  0.00000000E+00  0.00000000E+00  0.00000000E+00
  1.66561265E+00  0.00000000E+00  0.00000000E+00  0.00000000E+00 -9.35915871E-01
  0.00000000E+00  0.00000000E+00  0.00000000E+00  0.00000000E+00  0.00000000E+00
  0.00000000E+00  0.00000000E+00 -2.50865945E-01  0.00000000E+00  0.00000000E+00
  0.00000000E+00 -7.86768906E-01  0.00000000E+00  0.00000000E+00  0.00000000E+00
  1.65894692E+00  0.00000000E+00  0.00000000E+00  0.00000000E+00 -9.11520440E-01
  0.00000000E+00  0.00000000E+00  0.00000000E+00  0.00000000E+00  0.00000000E+00
  0.00000000E+00  0.00000000E+00  0.00000000E+00  0.00000000E+00  0.00000000E+00
 -2.50865945E-01  0.00000000E+00  0.00000000E+00  0.00000000E+00 -7.86768906E-01
  0.00000000E+00  0.00000000E+00  0.00000000E+00  1.65894692E+00  0.00000000E+00
  0.00000000E+00  0.00000000E+00 -9.11520440E-01  0.00000000E+00  0.00000000E+00
  0.00000000E+00  0.00000000E+00  0.00000000E+00  0.00000000E+00  1.12567861E-01
  2.28829940E-01  0.00000000E+00  0.00000000E+00  0.00000000E+00 -1.80078222E+00
  0.00000000E+00  0.00000000E+00  0.00000000E+00  2.58901128E+00  0.00000000E+00
  0.00000000E+00  0.00000000E+00 -1.23382326E+00  0.00000000E+00  0.00000000E+00
  0.00000000E+00 -9.21750100E-03  0.00000000E+00  0.00000000E+00 -4.68526276E-15
  0.00000000E+00  0.00000000E+00  0.00000000E+00  0.00000000E+00  0.00000000E+00
  0.00000000E+00  0.00000000E+00  0.00000000E+00  0.00000000E+00  0.00000000E+00
  0.00000000E+00  0.00000000E+00  0.00000000E+00  0.00000000E+00  0.00000000E+00
  0.00000000E+00  0.00000000E+00  0.00000000E+00  0.00000000E+00  0.00000000E+00
  1.00000000E+00  0.00000000E+00  0.00000000E+00  0.00000000E+00  0.00000000E+00
  0.00000000E+00  0.00000000E+00  0.00000000E+00  0.00000000E+00  0.00000000E+00
  0.00000000E+00  0.00000000E+00  0.00000000E+00  0.00000000E+00  0.00000000E+00
  0.00000000E+00  0.00000000E+00  0.00000000E+00  0.00000000E+00  0.00000000E+00
  0.00000000E+00  1.00000000E+00  0.00000000E+00  0.00000000E+00  0.00000000E+00
  2.97221052E-03  5.51132511E-03  0.00000000E+00  0.00000000E+00  0.00000000E+00
 -2.88620221E-02  0.00000000E+00  0.00000000E+00  0.00000000E+00  1.62371931E-02
  0.00000000E+00  0.00000000E+00  0.00000000E+00 -6.67873626E-03  0.00000000E+00
  0.00000000E+00  0.00000000E+00  9.99838212E-01  0.00000000E+00  0.00000000E+00
  5.51453474E-14  0.00000000E+00  2.54203528E-16  4.84437019E-16  0.00000000E+00
  0.00000000E+00  0.00000000E+00 -5.85552017E-15  0.00000000E+00  0.00000000E+00
  0.00000000E+00  1.22898395E-14  0.00000000E+00  0.00000000E+00  0.00000000E+00
 -7.14078870E-15  0.00000000E+00  0.00000000E+00  0.00000000E+00 -5.55871813E-14
  0.00000000E+00  0.00000000E+00  1.00000000E+00  0.00000000E+00  0.00000000E+00
  0.00000000E+00  0.00000000E+00  0.00000000E+00  0.00000000E+00  0.00000000E+00
  0.00000000E+00  0.00000000E+00  0.00000000E+00  0.00000000E+00  0.00000000E+00
  0.00000000E+00  0.00000000E+00  0.00000000E+00  0.00000000E+00  0.00000000E+00
  0.00000000E+00  0.00000000E+00  0.00000000E+00  0.00000000E+00  0.00000000E+00
  1.00000000E+00  0.00000000E+00  0.00000000E+00  0.00000000E+00  0.00000000E+00
 -1.30311065E+00  0.00000000E+00  0.00000000E+00  0.00000000E+00  1.62603233E+00
  0.00000000E+00  0.00000000E+00  0.00000000E+00 -9.27566575E-01  0.00000000E+00
  0.00000000E+00  0.00000000E+00  3.13152862E-01  0.00000000E+00  0.00000000E+00
  0.00000000E+00  0.00000000E+00  0.00000000E+00  0.00000000E+00  0.00000000E+00
 -1.30910171E+00  0.00000000E+00  0.00000000E+00  0.00000000E+00  1.61295096E+00
  0.00000000E+00  0.00000000E+00  0.00000000E+00 -9.15037067E-01  0.00000000E+00
  0.00000000E+00  0.00000000E+00  3.08497256E-01  0.00000000E+00  0.00000000E+00
  0.00000000E+00  0.00000000E+00  0.00000000E+00  0.00000000E+00  0.00000000E+00
  0.00000000E+00  0.00000000E+00  0.00000000E+00 -1.30910171E+00  0.00000000E+00
  0.00000000E+00  0.00000000E+00  1.61295096E+00  0.00000000E+00  0.00000000E+00
  0.00000000E+00 -9.15037067E-01  0.00000000E+00  0.00000000E+00  0.00000000E+00
  3.08497256E-01  0.00000000E+00  0.00000000E+00  0.00000000E+00  0.00000000E+00
  0.00000000E+00  0.00000000E+00 -2.02412501E+00  2.16140325E+00  0.00000000E+00
  0.00000000E+00  0.00000000E+00 -4.11370707E-01  0.00000000E+00  0.00000000E+00
  0.00000000E+00  3.27614099E-01  0.00000000E+00  0.00000000E+00  0.00000000E+00
 -1.16625738E-01  0.00000000E+00  0.00000000E+00  0.00000000E+00  4.67763009E-06
  0.00000000E+00  0.00000000E+00  3.14843574E-17  0.00000000E+00
Beta MO coefficients                       R   N=         484
  5.63759383E-01  4.64923869E-01  0.00000000E+00  0.00000000E+00  0.00000000E+00
  9.08640068E-03  0.00000000E+00  0.00000000E+00  0.00000000E+00 -4.76663821E-03
  0.00000000E+00  0.00000000E+00  0.00000000E+00  1.60598449E-03  0.00000000E+00
  0.00000000E+00  0.00000000E+00 -4.44637952E-04  0.00000000E+00  0.00000000E+00
  6.30695248E-16  0.00000000E+00 -1.37506595E-01 -2.21669400E-01  0.00000000E+00
  0.00000000E+00  0.00000000E+00  7.06840005E-01  0.00000000E+00  0.00000000E+00
  0.00000000E+00  4.31201800E-01  0.00000000E+00  0.00000000E+00  0.00000000E+00
 -2.65469944E-02  0.00000000E+00  0.00000000E+00  0.00000000E+00 -2.92895940E-02
  0.00000000E+00  0.00000000E+00 -6.90661297E-16  0.00000000E+00  0.00000000E+00
  0.00000000E+00  3.22262370E-01  0.00000000E+00  0.00000000E+00  0.00000000E+00
  5.13815553E-01  0.00000000E+00  0.00000000E+00  0.00000000E+00  3.60643004E-01
  0.00000000E+00  0.00000000E+00  0.00000000E+00  4.91901176E-04  0.00000000E+00
  0.00000000E+00  0.00000000E+00  0.00000000E+00  0.00000000E+00  0.00000000E+00
  0.00000000E+00  0.00000000E+00  0.00000000E+00  0.00000000E+00  3.22262370E-01
  0.00000000E+00  0.00000000E+00  0.00000000E+00  5.13815553E-01  0.00000000E+00
  0.00000000E+00  0.00000000E+00  3.60643004E-01  0.00000000E+00  0.00000000E+00
  0.00000000E+00  4.91901176E-04  0.00000000E+00  0.00000000E+00  0.00000000E+00
  0.00000000E+00  0.00000000E+00  0.00000000E+00  0.00000000E+00  0.00000000E+00
  0.00000000E+00  0.00000000E+00  3.12567105E-01  0.00000000E+00  0.00000000E+00
  0.00000000E+00  4.82533062E-01  0.00000000E+00  0.00000000E+00  0.00000000E+00
  4.00255532E-01  0.00000000E+00  0.00000000E+00  0.00000000E+00  1.51067442E-02
  0.00000000E+00  0.00000000E+00  0.00000000E+00  0.00000000E+00  0.00000000E+00
  4.71226961E-02  8.05754914E-02  0.00000000E+00  0.00000000E+00  0.00000000E+00
 -3.44592365E-01  0.00000000E+00  0.00000000E+00  0.00000000E+00 -5.15565566E-01
  0.00000000E+00  0.00000000E+00  0.00000000E+00  1.34594561E+00  0.00000000E+00
  0.00000000E+00  0.00000000E+00  7.74933463E-03  0.00000000E+00  0.00000000E+00
  2.30427656E-16  0.00000000E+00  0.00000000E+00  0.00000000E+00 -1.30753334E-01
  0.00000000E+00  0.00000000E+00  0.00000000E+00 -2.18561788E-01  0.00000000E+00
  0.00000000E+00  0.00000000E+00 -1.18969429E-01  0.00000000E+00  0.00000000E+00
  0.00000000E+00  1.06328093E+00  0.00000000E+00  0.00000000E+00  0.00000000E+00
  0.00000000E+00  0.00000000E+00  0.00000000E+00  0.00000000E+00  0.00000000E+00
  0.00000000E+00  0.00000000E+00 -1.30753334E-01  0.00000000E+00  0.00000000E+00
  0.00000000E+00 -2.18561788E-01  0.00000000E+00  0.00000000E+00  0.00000000E+00
 -1.18969429E-01  0.00000000E+00  0.00000000E+00  0.00000000E+00  1.06328093E+00
  0.00000000E+00  0.00000000E+00  0.00000000E+00  0.00000000E+00  0.00000000E+00
  0.00000000E+00  0.00000000E+00  0.00000000E+00  0.00000000E+00  0.00000000E+00
 -1.31833228E-01  0.00000000E+00  0.00000000E+00  0.00000000E+00 -2.07521171E-01
  0.00000000E+00  0.00000000E+00  0.00000000E+00 -1.92965588E-01  0.00000000E+00
  0.00000000E+00  0.00000000E+00  1.09540607E+00  0.00000000E+00  0.00000000E+00
  0.00000000E+00  0.00000000E+00  0.00000000E+00  0.00000000E+00  0.00000000E+00
 -2.52336465E-01  0.00000000E+00  0.00000000E+00  0.00000000E+00 -7.92675586E-01
  0.00000000E+00  0.00000000E+00  0.00000000E+00  1.65715644E+00  0.00000000E+00
  0.00000000E+00  0.00000000E+00 -9.01723106E-01  0.00000000E+00  0.00000000E+00
  0.00000000E+00  0.00000000E+00  0.00000000E+00  0.00000000E+00  0.00000000E+00
  0.00000000E+00  0.00000000E+00  0.00000000E+00 -2.52336465E-01  0.00000000E+00
  0.00000000E+00  0.00000000E+00 -7.92675586E-01  0.00000000E+00  0.00000000E+00
  0.00000000E+00  1.65715644E+00  0.00000000E+00  0.00000000E+00  0.00000000E+00
 -9.01723106E-01  0.00000000E+00  0.00000000E+00  0.00000000E+00  0.00000000E+00
  0.00000000E+00  0.00000000E+00  0.00000000E+00  0.00000000E+00  0.00000000E+00
  0.00000000E+00 -2.57891316E-01  0.00000000E+00  0.00000000E+00  0.00000000E+00
 -8.23311582E-01  0.00000000E+00  0.00000000E+00  0.00000000E+00  1.64664117E+00
  0.00000000E+00  0.00000000E+00  0.00000000E+00 -8.63880367E-01  0.00000000E+00
  0.00000000E+00  0.00000000E+00  0.00000000E+00  0.00000000E+00  1.14898235E-01
  2.32433718E-01  0.00000000E+00  0.00000000E+00  0.00000000E+00 -1.81577520E+00
  0.00000000E+00  0.00000000E+00  0.00000000E+00  2.57474959E+00  0.00000000E+00
  0.00000000E+00  0.00000000E+00 -1.20787909E+00  0.00000000E+00  0.00000000E+00
  0.00000000E+00  1.24596656E-02  0.00000000E+00  0.00000000E+00 -3.86581383E-15
  0.00000000E+00  0.00000000E+00  0.00000000E+00  0.00000000E+00  0.00000000E+00
  0.00000000E+00  0.00000000E+00  0.00000000E+00  0.00000000E+00  0.00000000E+00
  0.00000000E+00  0.00000000E+00  0.00000000E+00  0.00000000E+00  0.00000000E+00
  0.00000000E+00  0.00000000E+00  0.00000000E+00  0.00000000E+00  0.00000000E+00
  0.00000000E+00  0.00000000E+00  1.00000000E+00  2.86938018E-16  5.88487135E-16
  0.00000000E+00  0.00000000E+00  0.00000000E+00 -5.93113176E-15  0.00000000E+00
  0.00000000E+00  0.00000000E+00  1.03993271E-14  0.00000000E+00  0.00000000E+00
  0.00000000E+00 -5.34125452E-15  0.00000000E+00  0.00000000E+00  0.00000000E+00
  9.40381965E-15  0.00000000E+00  0.00000000E+00  1.00000000E+00  0.00000000E+00
  0.00000000E+00  0.00000000E+00  0.00000000E+00  0.00000000E+00  0.00000000E+00
  0.00000000E+00  0.00000000E+00  0.00000000E+00  0.00000000E+00  0.00000000E+00
  0.00000000E+00  0.00000000E+00  0.00000000E+00  0.00000000E+00  0.00000000E+00
  0.00000000E+00  0.00000000E+00  0.00000000E+00  1.00000000E+00  0.00000000E+00
  0.00000000E+00  0.00000000E+00  0.00000000E+00  0.00000000E+00  0.00000000E+00
  0.00000000E+00  0.00000000E+00  0.00000000E+00  0.00000000E+00  0.00000000E+00
  0.00000000E+00  0.00000000E+00  0.00000000E+00  0.00000000E+00  0.00000000E+00
  0.00000000E+00  0.00000000E+00  0.00000000E+00  0.00000000E+00  0.00000000E+00
  0.00000000E+00  1.00000000E+00  0.00000000E+00  0.00000000E+00 -6.51697234E-03
 -8.80720573E-03  0.00000000E+00  0.00000000E+00  0.00000000E+00  4.58347719E-02
  0.00000000E+00  0.00000000E+00  0.00000000E+00 -1.53136604E-02  0.00000000E+00
  0.00000000E+00  0.00000000E+00  3.79062123E-03  0.00000000E+00  0.00000000E+00
  0.00000000E+00  9.99463061E-01  0.00000000E+00  0.00000000E+00 -9.42091224E-15
  0.00000000E+00  0.00000000E+00  0.00000000E+00 -1.30896078E+00  0.00000000E+00
  0.00000000E+00  0.00000000E+00  1.61282135E+00  0.00000000E+00  0.00000000E+00
  0.00000000E+00 -9.13093795E-01  0.00000000E+00  0.00000000E+00  0.00000000E+00
  3.07398652E-01  0.00000000E+00  0.00000000E+00  0.00000000E+00  0.00000000E+00
  0.00000000E+00  0.00000000E+00  0.00000000E+00  0.00000000E+00  0.00000000E+00
  0.00000000E+00 -1.30896078E+00  0.00000000E+00  0.00000000E+00  0.00000000E+00
  1.61282135E+00  0.00000000E+00  0.00000000E+00  0.00000000E+00 -9.13093795E-01
  0.00000000E+00  0.00000000E+00  0.00000000E+00  3.07398652E-01  0.00000000E+00
  0.00000000E+00  0.00000000E+00  0.00000000E+00  0.00000000E+00  0.00000000E+00
  0.00000000E+00  0.00000000E+00  0.00000000E+00  0.00000000E+00 -1.31012036E+00
  0.00000000E+00  0.00000000E+00  0.00000000E+00  1.60858876E+00  0.00000000E+00
  0.00000000E+00  0.00000000E+00 -9.02916094E-01  0.00000000E+00  0.00000000E+00
  0.00000000E+00  3.02874739E-01  0.00000000E+00  0.00000000E+00  0.00000000E+00
  0.00000000E+00  0.00000000E+00 -2.02386830E+00  2.16166911E+00  0.00000000E+00
  0.00000000E+00  0.00000000E+00 -4.11826894E-01  0.00000000E+00  0.00000000E+00
  0.00000000E+00  3.27707716E-01  0.00000000E+00  0.00000000E+00  0.00000000E+00
 -1.16634534E-01  0.00000000E+00  0.00000000E+00  0.00000000E+00 -4.64391129E-04
  0.00000000E+00  0.00000000E+00  3.09659623E-17  0.00000000E+00
Orthonormal basis                          R   N=         484
  2.34500310E-01  2.51032831E-01  0.00000000E+00  0.00000000E+00  0.00000000E+00
  3.16628792E-01  0.00000000E+00  0.00000000E+00  0.00000000E+00  3.12562189E-01
  0.00000000E+00  0.00000000E+00  0.00000000E+00  2.45378104E-01  0.00000000E+00
  0.00000000E+00  0.00000000E+00  8.21350379E-18  0.00000000E+00  0.00000000E+00
  1.64270076E-17  0.00000000E+00  4.47791800E-01  4.32246117E-01  0.00000000E+00
  0.00000000E+00  0.00000000E+00 -9.34438641E-02  0.00000000E+00  0.00000000E+00
  0.00000000E+00 -3.13112702E-01  0.00000000E+00  0.00000000E+00  0.00000000E+00
 -3.50728413E-01  0.00000000E+00  0.00000000E+00  0.00000000E+00 -3.13484455E-17
  0.00000000E+00  0.00000000E+00 -6.26968910E-17  0.00000000E+00  3.94756804E-30
 -8.70637385E-30  0.00000000E+00  0.00000000E+00  0.00000000E+00  2.45218762E-29
  0.00000000E+00  0.00000000E+00  0.00000000E+00 -3.74942061E-29  0.00000000E+00
  0.00000000E+00  0.00000000E+00  2.12552944E-29  0.00000000E+00  0.00000000E+00
  0.00000000E+00  8.94427191E-01  0.00000000E+00  0.00000000E+00 -4.47213595E-01
  0.00000000E+00  7.90935510E-17  6.82727995E-17  0.00000000E+00  0.00000000E+00
  0.00000000E+00 -1.60281548E-16  0.00000000E+00  0.00000000E+00  0.00000000E+00
 -1.18418330E-16  0.00000000E+00  0.00000000E+00  0.00000000E+00  1.26691888E-16
  0.00000000E+00  0.00000000E+00  0.00000000E+00  4.47213595E-01  0.00000000E+00
  0.00000000E+00  8.94427191E-01  0.00000000E+00 -3.25846947E-01 -1.31206246E-01
  0.00000000E+00  0.00000000E+00  0.00000000E+00  9.59027873E-01  0.00000000E+00
  0.00000000E+00  0.00000000E+00  1.08563778E-01  0.00000000E+00  0.00000000E+00
  0.00000000E+00 -9.30158314E-01  0.00000000E+00  0.00000000E+00  0.00000000E+00
  1.37930956E-16  0.00000000E+00  0.00000000E+00  2.75861912E-16  0.00000000E+00
  1.84976794E+00 -1.83528458E+00  0.00000000E+00  0.00000000E+00  0.00000000E+00
 -3.26846453E-01  0.00000000E+00  0.00000000E+00  0.00000000E+00  9.04466787E-01
  0.00000000E+00  0.00000000E+00  0.00000000E+00 -6.20542711E-01  0.00000000E+00
  0.00000000E+00  0.00000000E+00  3.92993035E-17  0.00000000E+00  0.00000000E+00
  7.85986070E-17  0.00000000E+00 -8.15423007E-01  1.16763073E+00  0.00000000E+00
  0.00000000E+00  0.00000000E+00 -1.71803447E+00  0.00000000E+00  0.00000000E+00
  0.00000000E+00  2.48256861E+00  0.00000000E+00  0.00000000E+00  0.00000000E+00
 -1.36065360E+00  0.00000000E+00  0.00000000E+00  0.00000000E+00  8.21131481E-17
  0.00000000E+00  0.00000000E+00  1.64226296E-16  0.00000000E+00  0.00000000E+00
  0.00000000E+00  0.00000000E+00  0.00000000E+00  0.00000000E+00  0.00000000E+00
  0.00000000E+00  0.00000000E+00  0.00000000E+00  0.00000000E+00  0.00000000E+00
  0.00000000E+00  0.00000000E+00  0.00000000E+00  0.00000000E+00  0.00000000E+00
  0.00000000E+00  0.00000000E+00  0.00000000E+00  0.00000000E+00  0.00000000E+00
  1.00000000E+00  0.00000000E+00  0.00000000E+00  0.00000000E+00  0.00000000E+00
  0.00000000E+00  0.00000000E+00  0.00000000E+00  0.00000000E+00  0.00000000E+00
  0.00000000E+00  0.00000000E+00  0.00000000E+00  0.00000000E+00  0.00000000E+00
  0.00000000E+00  0.00000000E+00  0.00000000E+00  0.00000000E+00  1.00000000E+00
  0.00000000E+00  0.00000000E+00  0.00000000E+00  0.00000000E+00  0.00000000E+00
  0.00000000E+00  0.00000000E+00  0.00000000E+00  0.00000000E+00  0.00000000E+00
  0.00000000E+00  0.00000000E+00  0.00000000E+00  0.00000000E+00  0.00000000E+00
  0.00000000E+00  0.00000000E+00  0.00000000E+00  0.00000000E+00  0.00000000E+00
  0.00000000E+00  0.00000000E+00  1.00000000E+00  0.00000000E+00  0.00000000E+00
  0.00000000E+00  0.00000000E+00  0.00000000E+00  0.00000000E+00  2.67356255E-01
  0.00000000E+00  0.00000000E+00  0.00000000E+00  3.79771107E-01  0.00000000E+00
  0.00000000E+00  0.00000000E+00  3.84495861E-01  0.00000000E+00  0.00000000E+00
  0.00000000E+00  2.77500970E-01  0.00000000E+00  0.00000000E+00  0.00000000E+00
  0.00000000E+00  0.00000000E+00  0.00000000E+00  0.00000000E+00  0.00000000E+00
  0.00000000E+00  5.92090527E-01  0.00000000E+00  0.00000000E+00  0.00000000E+00
  3.04840631E-01  0.00000000E+00  0.00000000E+00  0.00000000E+00 -2.96821000E-01