fubar                                                                   
SP        UPBE1PBE                                                    6-311+G(d,p)        
Number of atoms                            I                1
Info1-9                                    I   N=           9
          11          10           0           0           0         110
           1          18       -1302
Full Title                                 C   N=           1
fubar       
Route                                      C   N=           3
#PBE1PBE/6-311+G(d,p) scf=tight     
Charge                                     I                1
Multiplicity                               I                3
Number of electrons                        I                6
Number of alpha electrons                  I                4
Number of beta electrons                   I                2
Number of basis functions                  I               22
Number of independent functions            I               22
Number of point charges in /Mol/           I                0
Number of translation vectors              I                0
Atomic numbers                             I   N=           1
           7
Nuclear charges                            R   N=           1
  7.00000000E+00
Current cartesian coordinates              R   N=           3
  0.00000000E+00  0.00000000E+00  0.00000000E+00
Number of symbols in /Mol/                 I                0
Int Atom Types                             I   N=           1
           0
Force Field                                I                0
Atom Types                                 C   N=           1
            
MM charges                                 R   N=           1
  0.00000000E+00
Integer atomic weights                     I   N=           1
          14
Real atomic weights                        R   N=           1
  1.40030740E+01
Atom fragment info                         I   N=           1
           0
Atom residue num                           I   N=           1
           0
Nuclear spins                              I   N=           1
           2
Nuclear ZEff                               R   N=           1
 -4.55000000E+00
Nuclear ZNuc                               R   N=           1
  7.00000000E+00
Nuclear QMom                               R   N=           1
  2.04400000E+00
Nuclear GFac                               R   N=           1
  4.03761000E-01
MicOpt                                     I   N=           1
          -1
Number of residues                         I                0
Number of secondary structures             I                0
SymInf integers                            I   N=          26
           1           8           1           1           1           1
          -1          -1          -1           1          -1          -1
          -1           1          -1          -1          -1          -1
           1           1           1          -1           1           1
           1          -1
RotTr to input orientation                 R   N=          12
  0.00000000E+00  0.00000000E+00 -1.00000000E+00  0.00000000E+00  1.00000000E+00
  0.00000000E+00  1.00000000E+00  0.00000000E+00  0.00000000E+00  0.00000000E+00
  0.00000000E+00  0.00000000E+00
Number of contracted shells                I                6
Number of primitive shells                 I               13
Pure/Cartesian d shells                    I                0
Pure/Cartesian f shells                    I                0
Highest angular momentum                   I                2
Largest degree of contraction              I                6
Shell types                                I   N=           6
           0          -1          -1          -1          -1          -2
Number of primitives per shell             I   N=           6
           6           3           1           1           1           1
Shell to atom map                          I   N=           6
           1           1           1           1           1           1
Primitive exponents                        R   N=          13
  6.29348000E+03  9.49044000E+02  2.18776000E+02  6.36916000E+01  1.88282000E+01
  2.72023000E+00  3.06331000E+01  7.02614000E+00  2.11205000E+00  6.84009000E-01
  2.00878000E-01  6.39000000E-02  9.13000000E-01
Contraction coefficients                   R   N=          13
  1.96978815E-03  1.49612859E-02  7.35005308E-02  2.48936766E-01  6.02459433E-01
  2.56201759E-01  1.11906080E-01  9.21666655E-01 -2.56919183E-03  1.00000000E+00
  1.00000000E+00  1.00000000E+00  1.00000000E+00
P(S=P) Contraction coefficients            R   N=          13
  0.00000000E+00  0.00000000E+00  0.00000000E+00  0.00000000E+00  0.00000000E+00
  0.00000000E+00  3.83119186E-02  2.37403116E-01  8.17592398E-01  1.00000000E+00
  1.00000000E+00  1.00000000E+00  0.00000000E+00
Coordinates of each shell                  R   N=          18
  0.00000000E+00  0.00000000E+00  0.00000000E+00  0.00000000E+00  0.00000000E+00
  0.00000000E+00  0.00000000E+00  0.00000000E+00  0.00000000E+00  0.00000000E+00
  0.00000000E+00  0.00000000E+00  0.00000000E+00  0.00000000E+00  0.00000000E+00
  0.00000000E+00  0.00000000E+00  0.00000000E+00
Num ILSW                                   I              100
ILSW                                       I   N=         100
           1           0           0           0           2           0
           0           0           0           0        1009          -1
           5           0           0           0           0           0
           0           0           0           0           0           0
           1           0           0           0           0           0
           0           0      100000           0          -1           0
           0           0           0           0           0           0
           0           0           0           1           0           0
           0 -2000000000           1           0           0           0
           0           1           4          52           0           0
           0           0          13           0           0           0
           0           0           0           1           0           1
           0           0           0           0           0           0
           0           0           0           0           0           0
           0           0           0           0           0           0
           0           0           0           0           0           0
           0           0           0           0
Num RLSW                                   I               52
RLSW                                       R   N=          52
  7.50000000E-01  7.50000000E-01  1.00000000E+00  1.00000000E+00  2.50000000E-01
  0.00000000E+00  0.00000000E+00  1.00000000E+00  0.00000000E+00  0.00000000E+00
  0.00000000E+00  0.00000000E+00  1.00000000E+00  0.00000000E+00  0.00000000E+00
  0.00000000E+00  0.00000000E+00  1.00000000E+00  0.00000000E+00  0.00000000E+00
  0.00000000E+00  0.00000000E+00  1.00000000E+00  0.00000000E+00  0.00000000E+00
  0.00000000E+00  0.00000000E+00  1.00000000E+00  0.00000000E+00  0.00000000E+00
  0.00000000E+00  0.00000000E+00  1.00000000E+00  0.00000000E+00  0.00000000E+00
  0.00000000E+00  0.00000000E+00  0.00000000E+00  1.00000000E+00  1.00000000E+00
  0.00000000E+00  1.00000000E+00  0.00000000E+00  0.00000000E+00  0.00000000E+00
  0.00000000E+00  0.00000000E+00  0.00000000E+00  0.00000000E+00  0.00000000E+00
  0.00000000E+00  0.00000000E+00
MxBond                                     I                1
NBond                                      I   N=           1
           0
IBond                                      I   N=           1
           0
RBond                                      R   N=           1
  0.00000000E+00
Virial Ratio                               R      2.001113804973149E+00
SCF Energy                                 R     -5.399946036761906E+01
Total Energy                               R     -5.399946036761906E+01
S**2                                       R      2.002361531733760E+00
S**2 after annihilation                    R      2.000000002677584E+00
RMS Density                                R      4.096038141269188E-09
Job Status                                 I                1
Nuclear derivative order                   I                0
External E-field                           R   N=          35
  0.00000000E+00  0.00000000E+00  0.00000000E+00  0.00000000E+00  0.00000000E+00
  0.00000000E+00  0.00000000E+00  0.00000000E+00  0.00000000E+00  0.00000000E+00
  0.00000000E+00  0.00000000E+00  0.00000000E+00  0.00000000E+00  0.00000000E+00
  0.00000000E+00  0.00000000E+00  0.00000000E+00  0.00000000E+00  0.00000000E+00
  0.00000000E+00  0.00000000E+00  0.00000000E+00  0.00000000E+00  0.00000000E+00
  0.00000000E+00  0.00000000E+00  0.00000000E+00  0.00000000E+00  0.00000000E+00
  0.00000000E+00  0.00000000E+00  0.00000000E+00  0.00000000E+00  0.00000000E+00
IOpCl                                      I                1
IROHF                                      I                0
Alpha Orbital Energies                     R   N=          22
 -1.51416248E+01 -1.33658799E+00 -8.90589109E-01 -8.90589109E-01 -7.07887513E-01
 -1.84476353E-01 -1.13300043E-01 -1.13300043E-01 -1.06741162E-01  3.77609566E-01
  3.77609566E-01  3.93755666E-01  5.13457242E-01  1.36191488E+00  1.36191488E+00
  1.37217806E+00  1.37217806E+00  1.38999146E+00  3.16174758E+00  3.16174758E+00
  3.19138324E+00  3.45683868E+01
Beta Orbital Energies                      R   N=          22
 -1.50906585E+01 -1.16916331E+00 -6.53700748E-01 -5.73610718E-01 -5.73610718E-01
 -1.57631608E-01 -9.37450923E-02 -8.13282333E-02 -8.13282333E-02  4.17277445E-01
  4.54766185E-01  4.54766185E-01  5.79261306E-01  1.45896432E+00  1.47951968E+00
  1.47951968E+00  1.53930929E+00  1.53930929E+00  3.22731425E+00  3.29646857E+00
  3.29646857E+00  3.46133803E+01
Alpha MO coefficients                      R   N=         484
  5.56789682E-01  4.66941242E-01  0.00000000E+00  0.00000000E+00  0.00000000E+00
  1.25542974E-02  0.00000000E+00  0.00000000E+00  0.00000000E+00 -5.93777649E-03
  0.00000000E+00  0.00000000E+00  0.00000000E+00  2.10930715E-03  0.00000000E+00
  0.00000000E+00  0.00000000E+00  2.49529992E-04  0.00000000E+00  0.00000000E+00
 -4.32198624E-04  0.00000000E+00 -1.39906999E-01 -2.27421743E-01  0.00000000E+00
  0.00000000E+00  0.00000000E+00  7.26883677E-01  0.00000000E+00  0.00000000E+00
  0.00000000E+00  4.16749012E-01  0.00000000E+00  0.00000000E+00  0.00000000E+00
 -3.07968833E-02  0.00000000E+00  0.00000000E+00  0.00000000E+00  5.11763484E-03
  0.00000000E+00  0.00000000E+00 -8.86400355E-03  0.00000000E+00  0.00000000E+00
  0.00000000E+00  0.00000000E+00  3.54536591E-01  0.00000000E+00  0.00000000E+00
  0.00000000E+00  5.41102662E-01  0.00000000E+00  0.00000000E+00  0.00000000E+00
  3.05739083E-01  0.00000000E+00  0.00000000E+00  0.00000000E+00 -1.13308644E-02
  0.00000000E+00  0.00000000E+00  0.00000000E+00  0.00000000E+00  0.00000000E+00
  0.00000000E+00  0.00000000E+00  0.00000000E+00  0.00000000E+00  0.00000000E+00
  3.54536591E-01  0.00000000E+00  0.00000000E+00  0.00000000E+00  5.41102662E-01
  0.00000000E+00  0.00000000E+00  0.00000000E+00  3.05739083E-01  0.00000000E+00
  0.00000000E+00  0.00000000E+00 -1.13308644E-02  0.00000000E+00  0.00000000E+00
  0.00000000E+00  0.00000000E+00  0.00000000E+00  0.00000000E+00  0.00000000E+00
  3.30036986E-01  0.00000000E+00  0.00000000E+00  0.00000000E+00  5.19022095E-01
  0.00000000E+00  0.00000000E+00  0.00000000E+00  3.52828452E-01  0.00000000E+00
  0.00000000E+00  0.00000000E+00  8.41329231E-04  0.00000000E+00  0.00000000E+00
  0.00000000E+00  0.00000000E+00  0.00000000E+00  0.00000000E+00  0.00000000E+00
  4.58233624E-02  7.82722074E-02  0.00000000E+00  0.00000000E+00  0.00000000E+00
 -3.23407063E-01  0.00000000E+00  0.00000000E+00  0.00000000E+00 -5.79236676E-01
  0.00000000E+00  0.00000000E+00  0.00000000E+00  1.39385821E+00  0.00000000E+00
  0.00000000E+00  0.00000000E+00 -1.01689176E-03  0.00000000E+00  0.00000000E+00
  1.76130820E-03  0.00000000E+00  0.00000000E+00  0.00000000E+00  0.00000000E+00
  0.00000000E+00 -1.25099053E-01  0.00000000E+00  0.00000000E+00  0.00000000E+00
 -1.88629727E-01  0.00000000E+00  0.00000000E+00  0.00000000E+00 -1.33778342E-01
  0.00000000E+00  0.00000000E+00  0.00000000E+00  1.08128686E+00  0.00000000E+00
  0.00000000E+00  0.00000000E+00  0.00000000E+00  0.00000000E+00  0.00000000E+00
  0.00000000E+00  0.00000000E+00 -1.25099053E-01  0.00000000E+00  0.00000000E+00
  0.00000000E+00 -1.88629727E-01  0.00000000E+00  0.00000000E+00  0.00000000E+00
 -1.33778342E-01  0.00000000E+00  0.00000000E+00  0.00000000E+00  1.08128686E+00
  0.00000000E+00  0.00000000E+00  0.00000000E+00  0.00000000E+00  0.00000000E+00
  0.00000000E+00  0.00000000E+00  0.00000000E+00 -1.29911717E-01  0.00000000E+00
  0.00000000E+00  0.00000000E+00 -2.01179316E-01  0.00000000E+00  0.00000000E+00
  0.00000000E+00 -1.74328475E-01  0.00000000E+00  0.00000000E+00  0.00000000E+00
  1.09736554E+00  0.00000000E+00  0.00000000E+00  0.00000000E+00  0.00000000E+00
  0.00000000E+00  0.00000000E+00  0.00000000E+00  0.00000000E+00  0.00000000E+00
  0.00000000E+00  0.00000000E+00 -2.50162107E-01  0.00000000E+00  0.00000000E+00
  0.00000000E+00 -7.40544751E-01  0.00000000E+00  0.00000000E+00  0.00000000E+00
  1.69501419E+00  0.00000000E+00  0.00000000E+00  0.00000000E+00 -9.48150477E-01
  0.00000000E+00  0.00000000E+00  0.00000000E+00  0.00000000E+00  0.00000000E+00
  0.00000000E+00  0.00000000E+00  0.00000000E+00 -2.50162107E-01  0.00000000E+00
  0.00000000E+00  0.00000000E+00 -7.40544751E-01  0.00000000E+00  0.00000000E+00
  0.00000000E+00  1.69501419E+00  0.00000000E+00  0.00000000E+00  0.00000000E+00
 -9.48150477E-01  0.00000000E+00  0.00000000E+00  0.00000000E+00  0.00000000E+00
  0.00000000E+00  0.00000000E+00  0.00000000E+00  0.00000000E+00 -2.54730759E-01
  0.00000000E+00  0.00000000E+00  0.00000000E+00 -7.75382486E-01  0.00000000E+00
  0.00000000E+00  0.00000000E+00  1.68756826E+00  0.00000000E+00  0.00000000E+00
  0.00000000E+00 -9.30859252E-01  0.00000000E+00  0.00000000E+00  0.00000000E+00
  0.00000000E+00  0.00000000E+00  0.00000000E+00  0.00000000E+00  1.15151268E-01
  2.30956837E-01  0.00000000E+00  0.00000000E+00  0.00000000E+00 -1.78894015E+00
  0.00000000E+00  0.00000000E+00  0.00000000E+00  2.61904206E+00  0.00000000E+00
  0.00000000E+00  0.00000000E+00 -1.26464831E+00  0.00000000E+00  0.00000000E+00
  0.00000000E+00 -3.33400255E-03  0.00000000E+00  0.00000000E+00  5.77466181E-03
  0.00000000E+00  0.00000000E+00  0.00000000E+00  0.00000000E+00  0.00000000E+00
  0.00000000E+00  0.00000000E+00  0.00000000E+00  0.00000000E+00  0.00000000E+00
  0.00000000E+00  0.00000000E+00  0.00000000E+00  0.00000000E+00  0.00000000E+00
  0.00000000E+00  0.00000000E+00  0.00000000E+00  0.00000000E+00  0.00000000E+00
  1.00000000E+00  0.00000000E+00  0.00000000E+00  2.84612821E-17  1.34389953E-16
  0.00000000E+00  0.00000000E+00  0.00000000E+00 -1.18672183E-15  0.00000000E+00
  0.00000000E+00  0.00000000E+00  1.22671549E-15  0.00000000E+00  0.00000000E+00
  0.00000000E+00 -3.84517742E-16  0.00000000E+00  0.00000000E+00  0.00000000E+00
  8.66025404E-01  0.00000000E+00  0.00000000E+00  5.00000000E-01  0.00000000E+00
  0.00000000E+00  0.00000000E+00  0.00000000E+00  0.00000000E+00  0.00000000E+00
  0.00000000E+00  0.00000000E+00  0.00000000E+00  0.00000000E+00  0.00000000E+00
  0.00000000E+00  0.00000000E+00  0.00000000E+00  0.00000000E+00  0.00000000E+00
  0.00000000E+00  0.00000000E+00  0.00000000E+00  0.00000000E+00  0.00000000E+00
  0.00000000E+00  1.00000000E+00  0.00000000E+00  0.00000000E+00  0.00000000E+00
  0.00000000E+00  0.00000000E+00  0.00000000E+00  0.00000000E+00  0.00000000E+00
  0.00000000E+00  0.00000000E+00  0.00000000E+00  0.00000000E+00  0.00000000E+00
  0.00000000E+00  0.00000000E+00  0.00000000E+00  0.00000000E+00  0.00000000E+00
  1.00000000E+00  0.00000000E+00  0.00000000E+00  0.00000000E+00 -1.96810034E-03
 -3.84379607E-03  0.00000000E+00  0.00000000E+00  0.00000000E+00  2.00412438E-02
  0.00000000E+00  0.00000000E+00  0.00000000E+00 -1.20302407E-02  0.00000000E+00
  0.00000000E+00  0.00000000E+00  5.28644500E-03  0.00000000E+00  0.00000000E+00
  0.00000000E+00 -4.99961596E-01  0.00000000E+00  0.00000000E+00  8.65958887E-01
  0.00000000E+00  0.00000000E+00  0.00000000E+00  0.00000000E+00 -1.28284826E+00
  0.00000000E+00  0.00000000E+00  0.00000000E+00  1.59016443E+00  0.00000000E+00
  0.00000000E+00  0.00000000E+00 -9.22112784E-01  0.00000000E+00  0.00000000E+00
  0.00000000E+00  3.28130802E-01  0.00000000E+00  0.00000000E+00  0.00000000E+00
  0.00000000E+00  0.00000000E+00  0.00000000E+00  0.00000000E+00  0.00000000E+00
  0.00000000E+00  0.00000000E+00 -1.28284826E+00  0.00000000E+00  0.00000000E+00
  0.00000000E+00  1.59016443E+00  0.00000000E+00  0.00000000E+00  0.00000000E+00
 -9.22112784E-01  0.00000000E+00  0.00000000E+00  0.00000000E+00  3.28130802E-01
  0.00000000E+00  0.00000000E+00  0.00000000E+00  0.00000000E+00  0.00000000E+00
  0.00000000E+00  0.00000000E+00 -1.28799747E+00  0.00000000E+00  0.00000000E+00
  0.00000000E+00  1.57934406E+00  0.00000000E+00  0.00000000E+00  0.00000000E+00
 -9.12125619E-01  0.00000000E+00  0.00000000E+00  0.00000000E+00  3.24434944E-01
  0.00000000E+00  0.00000000E+00  0.00000000E+00  0.00000000E+00  0.00000000E+00
  0.00000000E+00  0.00000000E+00 -2.14444916E+00  2.25398112E+00  0.00000000E+00
  0.00000000E+00  0.00000000E+00 -3.26587934E-01  0.00000000E+00  0.00000000E+00
  0.00000000E+00  2.79391696E-01  0.00000000E+00  0.00000000E+00  0.00000000E+00
 -1.05664434E-01  0.00000000E+00  0.00000000E+00  0.00000000E+00 -1.10026572E-05
  0.00000000E+00  0.00000000E+00  1.90571614E-05  0.00000000E+00
Beta MO coefficients                       R   N=         484
  5.58587256E-01  4.66420834E-01  0.00000000E+00  0.00000000E+00  0.00000000E+00
  8.68878840E-03  0.00000000E+00  0.00000000E+00  0.00000000E+00 -4.18502728E-03
  0.00000000E+00  0.00000000E+00  0.00000000E+00  1.46490533E-03  0.00000000E+00
  0.00000000E+00  0.00000000E+00 -2.02222889E-04  0.00000000E+00  0.00000000E+00
  3.50260319E-04  0.00000000E+00 -1.35747296E-01 -2.17951494E-01  0.00000000E+00
  0.00000000E+00  0.00000000E+00  6.77579416E-01  0.00000000E+00  0.00000000E+00
  0.00000000E+00  4.61212210E-01  0.00000000E+00  0.00000000E+00  0.00000000E+00
 -2.44220356E-02  0.00000000E+00  0.00000000E+00  0.00000000E+00 -1.23256950E-02
  0.00000000E+00  0.00000000E+00  2.13487300E-02  0.00000000E+00  0.00000000E+00
  0.00000000E+00  3.25845237E-01  0.00000000E+00  0.00000000E+00  0.00000000E+00
  5.04730776E-01  0.00000000E+00  0.00000000E+00  0.00000000E+00  3.71261388E-01
  0.00000000E+00  0.00000000E+00  0.00000000E+00  7.35834954E-03  0.00000000E+00
  0.00000000E+00  0.00000000E+00  0.00000000E+00  0.00000000E+00  0.00000000E+00
  0.00000000E+00  0.00000000E+00  0.00000000E+00  0.00000000E+00  0.00000000E+00
  3.16354361E-01  0.00000000E+00  0.00000000E+00  0.00000000E+00  4.78223498E-01
  0.00000000E+00  0.00000000E+00  0.00000000E+00  4.02943759E-01  0.00000000E+00
  0.00000000E+00  0.00000000E+00  2.42995055E-02  0.00000000E+00  0.00000000E+00
  0.00000000E+00  0.00000000E+00  0.00000000E+00  0.00000000E+00  0.00000000E+00
  0.00000000E+00  3.16354361E-01  0.00000000E+00  0.00000000E+00  0.00000000E+00
  4.78223498E-01  0.00000000E+00  0.00000000E+00  0.00000000E+00  4.02943759E-01
  0.00000000E+00  0.00000000E+00  0.00000000E+00  2.42995055E-02  0.00000000E+00
  0.00000000E+00  0.00000000E+00  0.00000000E+00  0.00000000E+00  0.00000000E+00
  4.55445596E-02  7.60312024E-02  0.00000000E+00  0.00000000E+00  0.00000000E+00
 -2.85262605E-01  0.00000000E+00  0.00000000E+00  0.00000000E+00 -6.70146464E-01
  0.00000000E+00  0.00000000E+00  0.00000000E+00  1.43273016E+00  0.00000000E+00
  0.00000000E+00  0.00000000E+00  3.44166123E-03  0.00000000E+00  0.00000000E+00
 -5.96113212E-03  0.00000000E+00  0.00000000E+00  0.00000000E+00 -1.30815121E-01
  0.00000000E+00  0.00000000E+00  0.00000000E+00 -1.96497997E-01  0.00000000E+00
  0.00000000E+00  0.00000000E+00 -2.08774005E-01  0.00000000E+00  0.00000000E+00
  0.00000000E+00  1.11290701E+00  0.00000000E+00  0.00000000E+00  0.00000000E+00
  0.00000000E+00  0.00000000E+00  0.00000000E+00  0.00000000E+00  0.00000000E+00
  0.00000000E+00  0.00000000E+00  0.00000000E+00 -1.33362612E-01  0.00000000E+00
  0.00000000E+00  0.00000000E+00 -1.90358213E-01  0.00000000E+00  0.00000000E+00
  0.00000000E+00 -2.70754592E-01  0.00000000E+00  0.00000000E+00  0.00000000E+00
  1.13861889E+00  0.00000000E+00  0.00000000E+00  0.00000000E+00  0.00000000E+00
  0.00000000E+00  0.00000000E+00  0.00000000E+00  0.00000000E+00 -1.33362612E-01
  0.00000000E+00  0.00000000E+00  0.00000000E+00 -1.90358213E-01  0.00000000E+00
  0.00000000E+00  0.00000000E+00 -2.70754592E-01  0.00000000E+00  0.00000000E+00
  0.00000000E+00  1.13861889E+00  0.00000000E+00  0.00000000E+00  0.00000000E+00
  0.00000000E+00  0.00000000E+00  0.00000000E+00  0.00000000E+00  0.00000000E+00
 -2.57335394E-01  0.00000000E+00  0.00000000E+00  0.00000000E+00 -7.89553564E-01
  0.00000000E+00  0.00000000E+00  0.00000000E+00  1.68242997E+00  0.00000000E+00
  0.00000000E+00  0.00000000E+00 -9.13073210E-01  0.00000000E+00  0.00000000E+00
  0.00000000E+00  0.00000000E+00  0.00000000E+00  0.00000000E+00  0.00000000E+00
  0.00000000E+00  0.00000000E+00  0.00000000E+00  0.00000000E+00 -2.61966283E-01
  0.00000000E+00  0.00000000E+00  0.00000000E+00 -8.14939253E-01  0.00000000E+00
  0.00000000E+00  0.00000000E+00  1.67107091E+00  0.00000000E+00  0.00000000E+00
  0.00000000E+00 -8.81980232E-01  0.00000000E+00  0.00000000E+00  0.00000000E+00
  0.00000000E+00  0.00000000E+00  0.00000000E+00  0.00000000E+00  0.00000000E+00
 -2.61966283E-01  0.00000000E+00  0.00000000E+00  0.00000000E+00 -8.14939253E-01
  0.00000000E+00  0.00000000E+00  0.00000000E+00  1.67107091E+00  0.00000000E+00
  0.00000000E+00  0.00000000E+00 -8.81980232E-01  0.00000000E+00  0.00000000E+00
  0.00000000E+00  0.00000000E+00  0.00000000E+00  0.00000000E+00  1.19308332E-01
  2.37457690E-01  0.00000000E+00  0.00000000E+00  0.00000000E+00 -1.81415297E+00
  0.00000000E+00  0.00000000E+00  0.00000000E+00  2.58971059E+00  0.00000000E+00
  0.00000000E+00  0.00000000E+00 -1.22058118E+00  0.00000000E+00  0.00000000E+00
  0.00000000E+00  6.19510030E-03  0.00000000E+00  0.00000000E+00 -1.07302285E-02
  0.00000000E+00  5.61632567E-03  7.91486403E-03  0.00000000E+00  0.00000000E+00
  0.00000000E+00 -4.10575508E-02  0.00000000E+00  0.00000000E+00  0.00000000E+00
  1.60213501E-02  0.00000000E+00  0.00000000E+00  0.00000000E+00 -4.62713471E-03
  0.00000000E+00  0.00000000E+00  0.00000000E+00 -4.99797744E-01  0.00000000E+00
  0.00000000E+00  8.65675087E-01  0.00000000E+00  0.00000000E+00  0.00000000E+00
  0.00000000E+00  0.00000000E+00  0.00000000E+00  0.00000000E+00  0.00000000E+00
  0.00000000E+00  0.00000000E+00  0.00000000E+00  0.00000000E+00  0.00000000E+00
  0.00000000E+00  0.00000000E+00  0.00000000E+00  0.00000000E+00  0.00000000E+00
  0.00000000E+00  0.00000000E+00  0.00000000E+00  0.00000000E+00  1.00000000E+00
  0.00000000E+00  0.00000000E+00  0.00000000E+00  0.00000000E+00  0.00000000E+00
  0.00000000E+00  0.00000000E+00  0.00000000E+00  0.00000000E+00  0.00000000E+00
  0.00000000E+00  0.00000000E+00  0.00000000E+00  0.00000000E+00  0.00000000E+00
  0.00000000E+00  0.00000000E+00  0.00000000E+00  1.00000000E+00  0.00000000E+00
  0.00000000E+00  0.00000000E+00  0.00000000E+00  0.00000000E+00  0.00000000E+00
  0.00000000E+00  0.00000000E+00  0.00000000E+00  0.00000000E+00  0.00000000E+00
  0.00000000E+00  0.00000000E+00  0.00000000E+00  0.00000000E+00  0.00000000E+00
  0.00000000E+00  0.00000000E+00  0.00000000E+00  0.00000000E+00  0.00000000E+00
  0.00000000E+00  1.00000000E+00  0.00000000E+00  0.00000000E+00  4.77304900E-17
  4.54363839E-18  0.00000000E+00  0.00000000E+00  0.00000000E+00  7.56692944E-16
  0.00000000E+00  0.00000000E+00  0.00000000E+00 -2.59899824E-15  0.00000000E+00
  0.00000000E+00  0.00000000E+00  1.64041481E-15  0.00000000E+00  0.00000000E+00
  0.00000000E+00  8.66025404E-01  0.00000000E+00  0.00000000E+00  5.00000000E-01
  0.00000000E+00  0.00000000E+00  0.00000000E+00 -1.28845546E+00  0.00000000E+00
  0.00000000E+00  0.00000000E+00  1.57754343E+00  0.00000000E+00  0.00000000E+00
  0.00000000E+00 -9.07053410E-01  0.00000000E+00  0.00000000E+00  0.00000000E+00
  3.21947137E-01  0.00000000E+00  0.00000000E+00  0.00000000E+00  0.00000000E+00
  0.00000000E+00  0.00000000E+00  0.00000000E+00  0.00000000E+00  0.00000000E+00
  0.00000000E+00 -1.28962580E+00  0.00000000E+00  0.00000000E+00  0.00000000E+00
  1.57363997E+00  0.00000000E+00  0.00000000E+00  0.00000000E+00 -8.98102671E-01
  0.00000000E+00  0.00000000E+00  0.00000000E+00  3.17861991E-01  0.00000000E+00
  0.00000000E+00  0.00000000E+00  0.00000000E+00  0.00000000E+00  0.00000000E+00
  0.00000000E+00  0.00000000E+00  0.00000000E+00  0.00000000E+00 -1.28962580E+00
  0.00000000E+00  0.00000000E+00  0.00000000E+00  1.57363997E+00  0.00000000E+00
  0.00000000E+00  0.00000000E+00 -8.98102671E-01  0.00000000E+00  0.00000000E+00
  0.00000000E+00  3.17861991E-01  0.00000000E+00  0.00000000E+00  0.00000000E+00
  0.00000000E+00  0.00000000E+00 -2.14402123E+00  2.25441505E+00  0.00000000E+00
  0.00000000E+00  0.00000000E+00 -3.27226185E-01  0.00000000E+00  0.00000000E+00
  0.00000000E+00  2.79513492E-01  0.00000000E+00  0.00000000E+00  0.00000000E+00
 -1.05677629E-01  0.00000000E+00  0.00000000E+00  0.00000000E+00 -1.63678524E-04
  0.00000000E+00  0.00000000E+00  2.83499520E-04  0.00000000E+00
Orthonormal basis                          R   N=         484
  2.37258796E-01  2.48792276E-01  0.00000000E+00  0.00000000E+00  0.00000000E+00
  3.14136421E-01  0.00000000E+00  0.00000000E+00  0.00000000E+00  3.10357360E-01
  0.00000000E+00  0.00000000E+00  0.00000000E+00  2.47131997E-01  0.00000000E+00
  0.00000000E+00  0.00000000E+00 -2.08603220E-17  0.00000000E+00  0.00000000E+00
  0.00000000E+00  0.00000000E+00  4.42543018E-01  4.32319358E-01  0.00000000E+00
  0.00000000E+00  0.00000000E+00 -9.06604449E-02  0.00000000E+00  0.00000000E+00
  0.00000000E+00 -3.14228116E-01  0.00000000E+00  0.00000000E+00  0.00000000E+00
 -3.50226540E-01  0.00000000E+00  0.00000000E+00  0.00000000E+00  1.59340170E-17
  0.00000000E+00  0.00000000E+00  0.00000000E+00  0.00000000E+00  0.00000000E+00
  0.00000000E+00  0.00000000E+00  0.00000000E+00  0.00000000E+00  0.00000000E+00
  0.00000000E+00  0.00000000E+00  0.00000000E+00  0.00000000E+00  0.00000000E+00
  0.00000000E+00  0.00000000E+00  0.00000000E+00  0.00000000E+00  0.00000000E+00
  0.00000000E+00  0.00000000E+00  0.00000000E+00  0.00000000E+00  1.00000000E+00
  0.00000000E+00  3.26663306E-17  2.90298169E-17  0.00000000E+00  0.00000000E+00
  0.00000000E+00 -1.18639685E-16  0.00000000E+00  0.00000000E+00  0.00000000E+00
  5.66571983E-17  0.00000000E+00  0.00000000E+00  0.00000000E+00  1.00249567E-16
  0.00000000E+00  0.00000000E+00  0.00000000E+00  1.00000000E+00  0.00000000E+00
  0.00000000E+00  0.00000000E+00  0.00000000E+00 -3.08427338E-01 -1.57173734E-01
  0.00000000E+00  0.00000000E+00  0.00000000E+00  9.94219717E-01  0.00000000E+00
  0.00000000E+00  0.00000000E+00  8.82862496E-02  0.00000000E+00  0.00000000E+00
  0.00000000E+00 -9.20318709E-01  0.00000000E+00  0.00000000E+00  0.00000000E+00
  2.17796360E-16  0.00000000E+00  0.00000000E+00  0.00000000E+00  0.00000000E+00
  1.96171304E+00 -1.92434664E+00  0.00000000E+00  0.00000000E+00  0.00000000E+00
 -3.88719623E-01  0.00000000E+00  0.00000000E+00  0.00000000E+00  9.59313419E-01
  0.00000000E+00  0.00000000E+00  0.00000000E+00 -6.56693937E-01  0.00000000E+00
  0.00000000E+00  0.00000000E+00 -4.85145826E-17  0.00000000E+00  0.00000000E+00
  0.00000000E+00  0.00000000E+00 -8.64888929E-01  1.19710353E+00  0.00000000E+00
  0.00000000E+00  0.00000000E+00 -1.64134123E+00  0.00000000E+00  0.00000000E+00
  0.00000000E+00  2.51469247E+00  0.00000000E+00  0.00000000E+00  0.00000000E+00
 -1.44649769E+00  0.00000000E+00  0.00000000E+00  0.00000000E+00 -1.97272031E-16
  0.00000000E+00  0.00000000E+00  0.00000000E+00  0.00000000E+00  0.00000000E+00
  0.00000000E+00  0.00000000E+00  0.00000000E+00  0.00000000E+00  0.00000000E+00
  0.00000000E+00  0.00000000E+00  0.00000000E+00  0.00000000E+00  0.00000000E+00
  0.00000000E+00  0.00000000E+00  0.00000000E+00  0.00000000E+00  0.00000000E+00
  0.00000000E+00  0.00000000E+00  0.00000000E+00  0.00000000E+00  0.00000000E+00
  1.00000000E+00  0.00000000E+00  0.00000000E+00  0.00000000E+00  0.00000000E+00
  0.00000000E+00  0.00000000E+00  0.00000000E+00  0.00000000E+00  0.00000000E+00
  0.00000000E+00  0.00000000E+00  0.00000000E+00  0.00000000E+00  0.00000000E+00
  0.00000000E+00  0.00000000E+00  0.00000000E+00  0.00000000E+00  1.00000000E+00
  0.00000000E+00  0.00000000E+00  0.00000000E+00  0.00000000E+00  0.00000000E+00
  0.00000000E+00  0.00000000E+00  0.00000000E+00  0.00000000E+00  0.00000000E+00
  0.00000000E+00  0.00000000E+00  0.00000000E+00  0.00000000E+00  0.00000000E+00
  0.00000000E+00  0.00000000E+00  0.00000000E+00  0.00000000E+00  0.00000000E+00
  0.00000000E+00  0.00000000E+00  1.00000000E+00  0.00000000E+00  0.00000000E+00
  0.00000000E+00  0.00000000E+00  0.00000000E+00  0.00000000E+00  2.60374247E-01
  0.00000000E+00  0.00000000E+00  0.00000000E+00  3.75569254E-01  0.00000000E+00
  0.00000000E+00  0.00000000E+00  3.86371087E-01  0.00000000E+00  0.00000000E+00
  0.00000000E+00  2.87220663E-01  0.00000000E+00  0.00000000E+00  0.00000000E+00
  0.00000000E+00  0.00000000E+00  0.00000000E+00  0.00000000E+00  0.00000000E+00
  0.00000000E+00  6.01123738E-01  0.00000000E+00  0.00000000E+00  0.00000000E+00
  3.13723242E-01  0.00000000E+00  0.00000000E+00  0.00000000E+00 -2.96391563E-01