fubar                                                                   
SP        UPBE1PBE                                                    6-311+G(d,p)        
Number of atoms                            I                1
Info1-9                                    I   N=           9
          11          10           0           0           0         110
           1          18       -1302
Full Title                                 C   N=           1
fubar       
Route                                      C   N=           3
#PBE1PBE/6-311+G(d,p) scf=tight     
Charge                                     I               -2
Multiplicity                               I                2
Number of electrons                        I               19
Number of alpha electrons                  I               10
Number of beta electrons                   I                9
Number of basis functions                  I               30
Number of independent functions            I               30
Number of point charges in /Mol/           I                0
Number of translation vectors              I                0
Atomic numbers                             I   N=           1
          17
Nuclear charges                            R   N=           1
  1.70000000E+01
Current cartesian coordinates              R   N=           3
  0.00000000E+00  0.00000000E+00  0.00000000E+00
Number of symbols in /Mol/                 I                0
Int Atom Types                             I   N=           1
           0
Force Field                                I                0
Atom Types                                 C   N=           1
            
MM charges                                 R   N=           1
  0.00000000E+00
Integer atomic weights                     I   N=           1
          35
Real atomic weights                        R   N=           1
  3.49688527E+01
Atom fragment info                         I   N=           1
           0
Atom residue num                           I   N=           1
           0
Nuclear spins                              I   N=           1
           3
Nuclear ZEff                               R   N=           1
 -1.42400000E+01
Nuclear ZNuc                               R   N=           1
  1.70000000E+01
Nuclear QMom                               R   N=           1
 -8.16500000E+00
Nuclear GFac                               R   N=           1
  8.21874000E-01
MicOpt                                     I   N=           1
          -1
Number of residues                         I                0
Number of secondary structures             I                0
SymInf integers                            I   N=          26
           1           8           1           1           1           1
          -1          -1          -1           1          -1          -1
          -1           1          -1          -1          -1          -1
           1           1           1          -1           1           1
           1          -1
RotTr to input orientation                 R   N=          12
  0.00000000E+00  0.00000000E+00 -1.00000000E+00  0.00000000E+00  1.00000000E+00
  0.00000000E+00  1.00000000E+00  0.00000000E+00  0.00000000E+00  0.00000000E+00
  0.00000000E+00  0.00000000E+00
Number of contracted shells                I               13
Number of primitive shells                 I               25
Pure/Cartesian d shells                    I                0
Pure/Cartesian f shells                    I                0
Highest angular momentum                   I                2
Largest degree of contraction              I                6
Shell types                                I   N=          13
           0           0           0           0           0           0
          -1           1           1           1           1           1
          -2
Number of primitives per shell             I   N=          13
           6           3           1           1           1           1
           1           5           2           1           1           1
           1
Shell to atom map                          I   N=          13
           1           1           1           1           1           1
           1           1           1           1           1           1
           1
Primitive exponents                        R   N=          25
  1.05819000E+05  1.58720000E+04  3.61965000E+03  1.03080000E+03  3.39908000E+02
  1.24538000E+02  1.24538000E+02  4.95135000E+01  2.08056000E+01  6.58346000E+00
  2.56468000E+00  5.59763000E-01  1.83273000E-01  4.83000000E-02  5.89776000E+02
  1.39849000E+02  4.51413000E+01  1.68733000E+01  2.77152000E+00  6.74110000E+00
  2.77152000E+00  1.02387000E+00  3.81368000E-01  1.09437000E-01  7.50000000E-01
Contraction coefficients                   R   N=          25
  7.38000247E-04  5.71800191E-03  2.94950099E-02  1.17286039E-01  3.62949121E-01
  5.84149195E-01  1.34176973E-01  6.24249876E-01  2.91755942E-01  1.00000000E+00
  1.00000000E+00  1.00000000E+00  1.00000000E+00  1.00000000E+00  3.66556935E-03
  2.83679194E-02  1.24756603E-01  3.39654631E-01  7.47585963E-01 -1.57224381E+00
  9.92388882E-01  1.00000000E+00  1.00000000E+00  1.00000000E+00  1.00000000E+00
P(S=P) Contraction coefficients            R   N=          25
  0.00000000E+00  0.00000000E+00  0.00000000E+00  0.00000000E+00  0.00000000E+00
  0.00000000E+00  0.00000000E+00  0.00000000E+00  0.00000000E+00  0.00000000E+00
  0.00000000E+00  0.00000000E+00  0.00000000E+00  1.00000000E+00  0.00000000E+00
  0.00000000E+00  0.00000000E+00  0.00000000E+00  0.00000000E+00  0.00000000E+00
  0.00000000E+00  0.00000000E+00  0.00000000E+00  0.00000000E+00  0.00000000E+00
Coordinates of each shell                  R   N=          39
  0.00000000E+00  0.00000000E+00  0.00000000E+00  0.00000000E+00  0.00000000E+00
  0.00000000E+00  0.00000000E+00  0.00000000E+00  0.00000000E+00  0.00000000E+00
  0.00000000E+00  0.00000000E+00  0.00000000E+00  0.00000000E+00  0.00000000E+00
  0.00000000E+00  0.00000000E+00  0.00000000E+00  0.00000000E+00  0.00000000E+00
  0.00000000E+00  0.00000000E+00  0.00000000E+00  0.00000000E+00  0.00000000E+00
  0.00000000E+00  0.00000000E+00  0.00000000E+00  0.00000000E+00  0.00000000E+00
  0.00000000E+00  0.00000000E+00  0.00000000E+00  0.00000000E+00  0.00000000E+00
  0.00000000E+00  0.00000000E+00  0.00000000E+00  0.00000000E+00
Num ILSW                                   I              100
ILSW                                       I   N=         100
           1           0           0           0           2           0
           0           0           0           0        1009          -1
           5           0           0           0           0           0
           0           0           0           0           0           0
           1           0           0           0           0           0
           0           0      100000           0          -1           0
           0           0           0           0           0           0
           0           0           0           1           0           0
           0 -2000000000           1           0           0           0
           0           0           4          52           0           0
           0           0          13           0           0           0
           0           0           0           1           0           1
           0           0           0           0           0           0
           0           0           0           0           0           0
           0           0           0           0           0           0
           0           0           0           0           0           0
           0           0           0           0
Num RLSW                                   I               52
RLSW                                       R   N=          52
  7.50000000E-01  7.50000000E-01  1.00000000E+00  1.00000000E+00  2.50000000E-01
  0.00000000E+00  0.00000000E+00  1.00000000E+00  0.00000000E+00  0.00000000E+00
  0.00000000E+00  0.00000000E+00  1.00000000E+00  0.00000000E+00  0.00000000E+00
  0.00000000E+00  0.00000000E+00  1.00000000E+00  0.00000000E+00  0.00000000E+00
  0.00000000E+00  0.00000000E+00  1.00000000E+00  0.00000000E+00  0.00000000E+00
  0.00000000E+00  0.00000000E+00  1.00000000E+00  0.00000000E+00  0.00000000E+00
  0.00000000E+00  0.00000000E+00  1.00000000E+00  0.00000000E+00  0.00000000E+00
  0.00000000E+00  0.00000000E+00  0.00000000E+00  1.00000000E+00  1.00000000E+00
  0.00000000E+00  1.00000000E+00  0.00000000E+00  0.00000000E+00  0.00000000E+00
  0.00000000E+00  0.00000000E+00  0.00000000E+00  0.00000000E+00  0.00000000E+00
  0.00000000E+00  0.00000000E+00
MxBond                                     I                1
NBond                                      I   N=           1
           0
IBond                                      I   N=           1
           0
RBond                                      R   N=           1
  0.00000000E+00
Virial Ratio                               R      2.001182375714356E+00
SCF Energy                                 R     -4.598430269076383E+02
Total Energy                               R     -4.598430269076383E+02
S**2                                       R      7.591106578407967E-01
S**2 after annihilation                    R      7.500617895406644E-01
RMS Density                                R      1.266528650063170E-09
Job Status                                 I                1
Nuclear derivative order                   I                0
External E-field                           R   N=          35
  0.00000000E+00  0.00000000E+00  0.00000000E+00  0.00000000E+00  0.00000000E+00
  0.00000000E+00  0.00000000E+00  0.00000000E+00  0.00000000E+00  0.00000000E+00
  0.00000000E+00  0.00000000E+00  0.00000000E+00  0.00000000E+00  0.00000000E+00
  0.00000000E+00  0.00000000E+00  0.00000000E+00  0.00000000E+00  0.00000000E+00
  0.00000000E+00  0.00000000E+00  0.00000000E+00  0.00000000E+00  0.00000000E+00
  0.00000000E+00  0.00000000E+00  0.00000000E+00  0.00000000E+00  0.00000000E+00
  0.00000000E+00  0.00000000E+00  0.00000000E+00  0.00000000E+00  0.00000000E+00
IOpCl                                      I                1
IROHF                                      I                0
Alpha Orbital Energies                     R   N=          30
 -1.01223796E+02 -9.03088867E+00 -6.76093960E+00 -6.76093960E+00 -6.76093960E+00
 -3.09231978E-01  1.51010489E-01  1.51010489E-01  1.51010489E-01  3.35340579E-01
  3.68721467E-01  3.68721467E-01  3.68721467E-01  8.71876971E-01  8.71876971E-01
  8.71876971E-01  1.28109922E+00  1.38239893E+00  1.38239893E+00  1.38239893E+00
  1.38239893E+00  1.38239893E+00  2.74893101E+00  2.74893101E+00  2.74893101E+00
  1.00322515E+01  2.63202048E+01  2.63202048E+01  2.63202048E+01  2.16184541E+02
Beta Orbital Energies                      R   N=          30
 -1.01223843E+02 -9.03055056E+00 -6.76155800E+00 -6.76155800E+00 -6.76155800E+00
 -3.10692329E-01  1.52215681E-01  1.52215681E-01  1.52215681E-01  3.92435847E-01
  3.92435847E-01  3.92435847E-01  4.02690852E-01  8.86115113E-01  8.86115113E-01
  8.86115113E-01  1.28748765E+00  1.37898586E+00  1.37898586E+00  1.37898586E+00
  1.37898586E+00  1.37898586E+00  2.75031096E+00  2.75031096E+00  2.75031096E+00
  1.00327597E+01  2.63202676E+01  2.63202676E+01  2.63202676E+01  2.16184850E+02
Alpha MO coefficients                      R   N=         900
  4.11782809E-01  6.53977830E-01  1.47232467E-02 -3.62741157E-03  1.19178621E-03
 -6.21824518E-04  1.71396057E-04  0.00000000E+00  0.00000000E+00  0.00000000E+00
  0.00000000E+00  0.00000000E+00  0.00000000E+00  0.00000000E+00  0.00000000E+00
  0.00000000E+00  0.00000000E+00  0.00000000E+00  0.00000000E+00  0.00000000E+00
  0.00000000E+00  0.00000000E+00  0.00000000E+00  0.00000000E+00  0.00000000E+00
 -4.08160085E-16  0.00000000E+00  0.00000000E+00 -4.46013366E-16  0.00000000E+00
 -1.21842204E-01 -3.27807263E-01  5.00235800E-01  6.10269908E-01  5.30478588E-02
 -1.57046066E-02  3.98093807E-03  0.00000000E+00  0.00000000E+00  0.00000000E+00
  0.00000000E+00  0.00000000E+00  0.00000000E+00  0.00000000E+00  0.00000000E+00
  0.00000000E+00  0.00000000E+00  0.00000000E+00  0.00000000E+00  0.00000000E+00
  0.00000000E+00  0.00000000E+00  0.00000000E+00  0.00000000E+00  0.00000000E+00
 -8.42350719E-16  0.00000000E+00  0.00000000E+00  1.91751142E-16  0.00000000E+00
  0.00000000E+00  0.00000000E+00  0.00000000E+00  0.00000000E+00  0.00000000E+00
  0.00000000E+00  0.00000000E+00  0.00000000E+00  0.00000000E+00 -1.31239751E-04
  0.00000000E+00  0.00000000E+00  8.03226079E-01  0.00000000E+00  0.00000000E+00
 -2.74503057E-01  0.00000000E+00  0.00000000E+00  5.33882322E-02  0.00000000E+00
  0.00000000E+00 -1.59119422E-03  0.00000000E+00  0.00000000E+00  3.87207032E-04
  0.00000000E+00  0.00000000E+00  0.00000000E+00  0.00000000E+00  0.00000000E+00
  0.00000000E+00  0.00000000E+00  0.00000000E+00  0.00000000E+00  0.00000000E+00
  0.00000000E+00  0.00000000E+00 -1.31239751E-04  0.00000000E+00  0.00000000E+00
  8.03226079E-01  0.00000000E+00  0.00000000E+00 -2.74503057E-01  0.00000000E+00
  0.00000000E+00  5.33882322E-02  0.00000000E+00  0.00000000E+00 -1.59119422E-03
  0.00000000E+00  0.00000000E+00  3.87207032E-04  0.00000000E+00  0.00000000E+00
  0.00000000E+00  0.00000000E+00  0.00000000E+00  0.00000000E+00  0.00000000E+00
  0.00000000E+00  0.00000000E+00  0.00000000E+00  0.00000000E+00  0.00000000E+00
  0.00000000E+00  0.00000000E+00  0.00000000E+00 -1.31239751E-04  0.00000000E+00
  0.00000000E+00  8.03226079E-01  0.00000000E+00  0.00000000E+00 -2.74503057E-01
  0.00000000E+00  0.00000000E+00  5.33882322E-02  0.00000000E+00  0.00000000E+00
 -1.59119422E-03  0.00000000E+00  0.00000000E+00  3.87207032E-04  0.00000000E+00
  0.00000000E+00  0.00000000E+00  0.00000000E+00  0.00000000E+00  0.00000000E+00
  3.80336770E-02  1.08966234E-01 -2.20071179E-01 -4.14593178E-01  6.34738025E-01
  5.60146917E-01  2.75212907E-02  0.00000000E+00  0.00000000E+00  0.00000000E+00
  0.00000000E+00  0.00000000E+00  0.00000000E+00  0.00000000E+00  0.00000000E+00
  0.00000000E+00  0.00000000E+00  0.00000000E+00  0.00000000E+00  0.00000000E+00
  0.00000000E+00  0.00000000E+00  0.00000000E+00  0.00000000E+00  0.00000000E+00
  2.17771113E-16  0.00000000E+00  0.00000000E+00 -5.78181193E-16  0.00000000E+00
  0.00000000E+00  0.00000000E+00  0.00000000E+00  0.00000000E+00  0.00000000E+00
  0.00000000E+00  0.00000000E+00  1.87739030E-01  0.00000000E+00  0.00000000E+00
 -2.08330211E-01  0.00000000E+00  0.00000000E+00  7.84118578E-02  0.00000000E+00
  0.00000000E+00  2.34776319E-01  0.00000000E+00  0.00000000E+00  5.19133193E-01
  0.00000000E+00  0.00000000E+00  3.09401771E-01  0.00000000E+00  0.00000000E+00
  0.00000000E+00  0.00000000E+00  0.00000000E+00  0.00000000E+00  0.00000000E+00
  0.00000000E+00  0.00000000E+00  0.00000000E+00  0.00000000E+00  0.00000000E+00
  0.00000000E+00  0.00000000E+00  0.00000000E+00  1.87739030E-01  0.00000000E+00
  0.00000000E+00 -2.08330211E-01  0.00000000E+00  0.00000000E+00  7.84118578E-02
  0.00000000E+00  0.00000000E+00  2.34776319E-01  0.00000000E+00  0.00000000E+00
  5.19133193E-01  0.00000000E+00  0.00000000E+00  3.09401771E-01  0.00000000E+00
  0.00000000E+00  0.00000000E+00  0.00000000E+00  0.00000000E+00  0.00000000E+00
  0.00000000E+00  0.00000000E+00  0.00000000E+00  0.00000000E+00  0.00000000E+00
  0.00000000E+00  0.00000000E+00  0.00000000E+00  0.00000000E+00  1.87739030E-01
  0.00000000E+00  0.00000000E+00 -2.08330211E-01  0.00000000E+00  0.00000000E+00
  7.84118578E-02  0.00000000E+00  0.00000000E+00  2.34776319E-01  0.00000000E+00
  0.00000000E+00  5.19133193E-01  0.00000000E+00  0.00000000E+00  3.09401771E-01
  0.00000000E+00  0.00000000E+00  0.00000000E+00  0.00000000E+00  0.00000000E+00
 -1.03371102E-02 -3.09235812E-02  7.36340353E-02  8.21528044E-02 -1.59417305E-02
 -9.84348270E-01  1.47002354E+00  0.00000000E+00  0.00000000E+00  0.00000000E+00
  0.00000000E+00  0.00000000E+00  0.00000000E+00  0.00000000E+00  0.00000000E+00
  0.00000000E+00  0.00000000E+00  0.00000000E+00  0.00000000E+00  0.00000000E+00
  0.00000000E+00  0.00000000E+00  0.00000000E+00  0.00000000E+00  0.00000000E+00
  8.39005245E-16  0.00000000E+00  0.00000000E+00 -8.96674260E-16  0.00000000E+00
  0.00000000E+00  0.00000000E+00  0.00000000E+00  0.00000000E+00  0.00000000E+00
  0.00000000E+00  0.00000000E+00  0.00000000E+00  1.57819999E+00  0.00000000E+00
  0.00000000E+00  9.45095607E-02  0.00000000E+00  0.00000000E+00 -3.09751212E-02
  0.00000000E+00  0.00000000E+00 -1.48672515E-01  0.00000000E+00  0.00000000E+00
 -7.09422636E-02  0.00000000E+00  0.00000000E+00 -9.86561375E-01  0.00000000E+00
  0.00000000E+00  0.00000000E+00  0.00000000E+00  0.00000000E+00  0.00000000E+00
  0.00000000E+00  0.00000000E+00  0.00000000E+00  0.00000000E+00  0.00000000E+00
  0.00000000E+00  0.00000000E+00  0.00000000E+00  0.00000000E+00  1.57819999E+00
  0.00000000E+00  0.00000000E+00  9.45095607E-02  0.00000000E+00  0.00000000E+00
 -3.09751212E-02  0.00000000E+00  0.00000000E+00 -1.48672515E-01  0.00000000E+00
  0.00000000E+00 -7.09422636E-02  0.00000000E+00  0.00000000E+00 -9.86561375E-01
  0.00000000E+00  0.00000000E+00  0.00000000E+00  0.00000000E+00  0.00000000E+00
  0.00000000E+00  0.00000000E+00  0.00000000E+00  0.00000000E+00  0.00000000E+00
  0.00000000E+00  0.00000000E+00  1.57819999E+00  0.00000000E+00  0.00000000E+00
  9.45095607E-02  0.00000000E+00  0.00000000E+00 -3.09751212E-02  0.00000000E+00
  0.00000000E+00 -1.48672515E-01  0.00000000E+00  0.00000000E+00 -7.09422636E-02
  0.00000000E+00  0.00000000E+00 -9.86561375E-01  0.00000000E+00  0.00000000E+00
  0.00000000E+00  0.00000000E+00  0.00000000E+00  0.00000000E+00  0.00000000E+00
  0.00000000E+00  0.00000000E+00  0.00000000E+00  0.00000000E+00  0.00000000E+00
  0.00000000E+00  0.00000000E+00  0.00000000E+00 -1.12014633E+00  0.00000000E+00
  0.00000000E+00  1.48526867E-01  0.00000000E+00  0.00000000E+00 -7.16908599E-02
  0.00000000E+00  0.00000000E+00 -7.52055272E-02  0.00000000E+00  0.00000000E+00
 -1.15591391E+00  0.00000000E+00  0.00000000E+00  2.14068375E+00  0.00000000E+00
  0.00000000E+00  0.00000000E+00  0.00000000E+00  0.00000000E+00  0.00000000E+00
  0.00000000E+00  0.00000000E+00  0.00000000E+00  0.00000000E+00  0.00000000E+00
  0.00000000E+00  0.00000000E+00 -1.12014633E+00  0.00000000E+00  0.00000000E+00
  1.48526867E-01  0.00000000E+00  0.00000000E+00 -7.16908599E-02  0.00000000E+00
  0.00000000E+00 -7.52055272E-02  0.00000000E+00  0.00000000E+00 -1.15591391E+00
  0.00000000E+00  0.00000000E+00  2.14068375E+00  0.00000000E+00  0.00000000E+00
  0.00000000E+00  0.00000000E+00  0.00000000E+00  0.00000000E+00  0.00000000E+00
  0.00000000E+00  0.00000000E+00  0.00000000E+00  0.00000000E+00  0.00000000E+00
  0.00000000E+00  0.00000000E+00  0.00000000E+00  0.00000000E+00 -1.12014633E+00
  0.00000000E+00  0.00000000E+00  1.48526867E-01  0.00000000E+00  0.00000000E+00
 -7.16908599E-02  0.00000000E+00  0.00000000E+00 -7.52055272E-02  0.00000000E+00
  0.00000000E+00 -1.15591391E+00  0.00000000E+00  0.00000000E+00  2.14068375E+00
  0.00000000E+00  0.00000000E+00  0.00000000E+00  0.00000000E+00  0.00000000E+00
 -3.69713749E-02 -1.00915831E-01  1.60110360E-01  6.86909881E-01 -2.43797180E+00
  2.54295913E+00 -8.41086399E-01  0.00000000E+00  0.00000000E+00  0.00000000E+00
  0.00000000E+00  0.00000000E+00  0.00000000E+00  0.00000000E+00  0.00000000E+00
  0.00000000E+00  0.00000000E+00  0.00000000E+00  0.00000000E+00  0.00000000E+00
  0.00000000E+00  0.00000000E+00  0.00000000E+00  0.00000000E+00  0.00000000E+00
  2.22667928E-14  0.00000000E+00  0.00000000E+00 -1.57407116E-15  0.00000000E+00
  0.00000000E+00  0.00000000E+00  0.00000000E+00  0.00000000E+00  0.00000000E+00
  0.00000000E+00  0.00000000E+00  0.00000000E+00  0.00000000E+00  0.00000000E+00
  0.00000000E+00  0.00000000E+00  0.00000000E+00  0.00000000E+00  0.00000000E+00
  0.00000000E+00  0.00000000E+00  0.00000000E+00  0.00000000E+00  0.00000000E+00
  0.00000000E+00  0.00000000E+00  0.00000000E+00  0.00000000E+00  0.00000000E+00
  0.00000000E+00  1.00000000E+00  0.00000000E+00  0.00000000E+00  0.00000000E+00
  0.00000000E+00  0.00000000E+00  0.00000000E+00  0.00000000E+00  0.00000000E+00
  0.00000000E+00  0.00000000E+00  0.00000000E+00  0.00000000E+00  0.00000000E+00
  0.00000000E+00  0.00000000E+00  0.00000000E+00  0.00000000E+00  0.00000000E+00
  0.00000000E+00  0.00000000E+00  0.00000000E+00  0.00000000E+00  0.00000000E+00
  0.00000000E+00  0.00000000E+00  0.00000000E+00  0.00000000E+00  0.00000000E+00
  0.00000000E+00  0.00000000E+00  0.00000000E+00  0.00000000E+00  1.00000000E+00
  0.00000000E+00  0.00000000E+00  0.00000000E+00  0.00000000E+00  0.00000000E+00
  0.00000000E+00  0.00000000E+00  0.00000000E+00  0.00000000E+00  0.00000000E+00
  0.00000000E+00  0.00000000E+00  0.00000000E+00  0.00000000E+00  0.00000000E+00
  0.00000000E+00  0.00000000E+00  0.00000000E+00  0.00000000E+00  0.00000000E+00
  0.00000000E+00  0.00000000E+00  0.00000000E+00  0.00000000E+00  0.00000000E+00
  0.00000000E+00  0.00000000E+00  1.00000000E+00  0.00000000E+00  0.00000000E+00
  2.80999295E-16  5.49252779E-16  5.65456052E-16 -6.99254424E-15  1.77532250E-14
 -1.77556223E-14  6.60520868E-15  0.00000000E+00  0.00000000E+00  0.00000000E+00
  0.00000000E+00  0.00000000E+00  0.00000000E+00  0.00000000E+00  0.00000000E+00
  0.00000000E+00  0.00000000E+00  0.00000000E+00  0.00000000E+00  0.00000000E+00
  0.00000000E+00  0.00000000E+00  0.00000000E+00  0.00000000E+00  0.00000000E+00
  3.47212464E-01  0.00000000E+00  0.00000000E+00  9.37786492E-01  0.00000000E+00
  8.15547028E-16  2.23546094E-15 -3.62620422E-15 -1.56744986E-14  5.51820632E-14
 -5.68325481E-14  1.74640723E-14  0.00000000E+00  0.00000000E+00  0.00000000E+00
  0.00000000E+00  0.00000000E+00  0.00000000E+00  0.00000000E+00  0.00000000E+00
  0.00000000E+00  0.00000000E+00  0.00000000E+00  0.00000000E+00  0.00000000E+00
  0.00000000E+00  0.00000000E+00  0.00000000E+00  0.00000000E+00  0.00000000E+00
  9.37786492E-01  0.00000000E+00  0.00000000E+00 -3.47212464E-01  0.00000000E+00
  0.00000000E+00  0.00000000E+00  0.00000000E+00  0.00000000E+00  0.00000000E+00
  0.00000000E+00  0.00000000E+00  5.00581974E-01  0.00000000E+00  0.00000000E+00
  5.12775298E-01  0.00000000E+00  0.00000000E+00 -1.26425031E-01  0.00000000E+00
  0.00000000E+00 -1.97324501E+00  0.00000000E+00  0.00000000E+00  2.06591265E+00
  0.00000000E+00  0.00000000E+00 -1.15063338E+00  0.00000000E+00  0.00000000E+00
  0.00000000E+00  0.00000000E+00  0.00000000E+00  0.00000000E+00  0.00000000E+00
  0.00000000E+00  0.00000000E+00  0.00000000E+00  0.00000000E+00  0.00000000E+00
  0.00000000E+00  0.00000000E+00  0.00000000E+00  5.00581974E-01  0.00000000E+00
  0.00000000E+00  5.12775298E-01  0.00000000E+00  0.00000000E+00 -1.26425031E-01
  0.00000000E+00  0.00000000E+00 -1.97324501E+00  0.00000000E+00  0.00000000E+00
  2.06591265E+00  0.00000000E+00  0.00000000E+00 -1.15063338E+00  0.00000000E+00
  0.00000000E+00  0.00000000E+00  0.00000000E+00  0.00000000E+00  0.00000000E+00
  0.00000000E+00  0.00000000E+00  0.00000000E+00  0.00000000E+00  0.00000000E+00
  0.00000000E+00  0.00000000E+00  0.00000000E+00  0.00000000E+00  5.00581974E-01
  0.00000000E+00  0.00000000E+00  5.12775298E-01  0.00000000E+00  0.00000000E+00
 -1.26425031E-01  0.00000000E+00  0.00000000E+00 -1.97324501E+00  0.00000000E+00
  0.00000000E+00  2.06591265E+00  0.00000000E+00  0.00000000E+00 -1.15063338E+00
  0.00000000E+00  0.00000000E+00  0.00000000E+00  0.00000000E+00  0.00000000E+00
  1.18324298E-01  4.80689219E-01 -2.64095876E+00  3.07354715E+00 -1.67764232E+00
  9.02318338E-01 -2.45597322E-01  0.00000000E+00  0.00000000E+00  0.00000000E+00
  0.00000000E+00  0.00000000E+00  0.00000000E+00  0.00000000E+00  0.00000000E+00
  0.00000000E+00  0.00000000E+00  0.00000000E+00  0.00000000E+00  0.00000000E+00
  0.00000000E+00  0.00000000E+00  0.00000000E+00  0.00000000E+00  0.00000000E+00
 -1.03180093E-15  0.00000000E+00  0.00000000E+00  6.62396309E-16  0.00000000E+00
  0.00000000E+00  0.00000000E+00  0.00000000E+00  0.00000000E+00  0.00000000E+00
  0.00000000E+00  0.00000000E+00 -2.51753517E-01  0.00000000E+00  0.00000000E+00
 -2.21792700E+00  0.00000000E+00  0.00000000E+00 -1.76450219E+00  0.00000000E+00
  0.00000000E+00  2.40235688E+00  0.00000000E+00  0.00000000E+00 -1.23225257E+00
  0.00000000E+00  0.00000000E+00  5.69436477E-01  0.00000000E+00  0.00000000E+00
  0.00000000E+00  0.00000000E+00  0.00000000E+00  0.00000000E+00  0.00000000E+00
  0.00000000E+00  0.00000000E+00  0.00000000E+00  0.00000000E+00  0.00000000E+00
  0.00000000E+00  0.00000000E+00  0.00000000E+00 -2.51753517E-01  0.00000000E+00
  0.00000000E+00 -2.21792700E+00  0.00000000E+00  0.00000000E+00 -1.76450219E+00
  0.00000000E+00  0.00000000E+00  2.40235688E+00  0.00000000E+00  0.00000000E+00
 -1.23225257E+00  0.00000000E+00  0.00000000E+00  5.69436477E-01  0.00000000E+00
  0.00000000E+00  0.00000000E+00  0.00000000E+00  0.00000000E+00  0.00000000E+00
  0.00000000E+00  0.00000000E+00  0.00000000E+00  0.00000000E+00  0.00000000E+00
  0.00000000E+00  0.00000000E+00  0.00000000E+00  0.00000000E+00 -2.51753517E-01
  0.00000000E+00  0.00000000E+00 -2.21792700E+00  0.00000000E+00  0.00000000E+00
 -1.76450219E+00  0.00000000E+00  0.00000000E+00  2.40235688E+00  0.00000000E+00
  0.00000000E+00 -1.23225257E+00  0.00000000E+00  0.00000000E+00  5.69436477E-01
  0.00000000E+00  0.00000000E+00  0.00000000E+00  0.00000000E+00  0.00000000E+00
 -1.54159935E+00  1.91463711E+00 -1.43604589E+00  9.57415515E-01 -3.78976348E-01
  1.99265356E-01 -5.53930408E-02  0.00000000E+00  0.00000000E+00  0.00000000E+00
  0.00000000E+00  0.00000000E+00  0.00000000E+00  0.00000000E+00  0.00000000E+00
  0.00000000E+00  0.00000000E+00  0.00000000E+00  0.00000000E+00  0.00000000E+00
  0.00000000E+00  0.00000000E+00  0.00000000E+00  0.00000000E+00  0.00000000E+00
 -2.85312174E-16  0.00000000E+00  0.00000000E+00  8.89211835E-18  0.00000000E+00
Beta MO coefficients                       R   N=         900
  4.11773910E-01  6.53982136E-01  1.47342269E-02 -3.63349831E-03  1.19294588E-03
 -6.22906319E-04  1.71761021E-04  0.00000000E+00  0.00000000E+00  0.00000000E+00
  0.00000000E+00  0.00000000E+00  0.00000000E+00  0.00000000E+00  0.00000000E+00
  0.00000000E+00  0.00000000E+00  0.00000000E+00  0.00000000E+00  0.00000000E+00
  0.00000000E+00  0.00000000E+00  0.00000000E+00  0.00000000E+00  0.00000000E+00
  7.70093251E-16  0.00000000E+00  0.00000000E+00  6.12659546E-17  0.00000000E+00
 -1.21837080E-01 -3.27791798E-01  5.00171383E-01  6.10256957E-01  5.31564106E-02
 -1.57079230E-02  3.97727773E-03  0.00000000E+00  0.00000000E+00  0.00000000E+00
  0.00000000E+00  0.00000000E+00  0.00000000E+00  0.00000000E+00  0.00000000E+00
  0.00000000E+00  0.00000000E+00  0.00000000E+00  0.00000000E+00  0.00000000E+00
  0.00000000E+00  0.00000000E+00  0.00000000E+00  0.00000000E+00  0.00000000E+00
  1.10949683E-16  0.00000000E+00  0.00000000E+00 -2.78066280E-16  0.00000000E+00
  0.00000000E+00  0.00000000E+00  0.00000000E+00  0.00000000E+00  0.00000000E+00
  0.00000000E+00  0.00000000E+00  0.00000000E+00  0.00000000E+00 -1.15861452E-04
  0.00000000E+00  0.00000000E+00  8.03260598E-01  0.00000000E+00  0.00000000E+00
 -2.74503641E-01  0.00000000E+00  0.00000000E+00  5.32984882E-02  0.00000000E+00
  0.00000000E+00 -1.54093722E-03  0.00000000E+00  0.00000000E+00  3.77326506E-04
  0.00000000E+00  0.00000000E+00  0.00000000E+00  0.00000000E+00  0.00000000E+00
  0.00000000E+00  0.00000000E+00  0.00000000E+00  0.00000000E+00  0.00000000E+00
  0.00000000E+00  0.00000000E+00  0.00000000E+00 -1.15861452E-04  0.00000000E+00
  0.00000000E+00  8.03260598E-01  0.00000000E+00  0.00000000E+00 -2.74503641E-01
  0.00000000E+00  0.00000000E+00  5.32984882E-02  0.00000000E+00  0.00000000E+00
 -1.54093722E-03  0.00000000E+00  0.00000000E+00  3.77326506E-04  0.00000000E+00
  0.00000000E+00  0.00000000E+00  0.00000000E+00  0.00000000E+00  0.00000000E+00
  0.00000000E+00  0.00000000E+00  0.00000000E+00  0.00000000E+00  0.00000000E+00
  0.00000000E+00  0.00000000E+00 -1.15861452E-04  0.00000000E+00  0.00000000E+00
  8.03260598E-01  0.00000000E+00  0.00000000E+00 -2.74503641E-01  0.00000000E+00
  0.00000000E+00  5.32984882E-02  0.00000000E+00  0.00000000E+00 -1.54093722E-03
  0.00000000E+00  0.00000000E+00  3.77326506E-04  0.00000000E+00  0.00000000E+00
  0.00000000E+00  0.00000000E+00  0.00000000E+00  0.00000000E+00  0.00000000E+00
  3.80310405E-02  1.08933535E-01 -2.19767317E-01 -4.14899750E-01  6.32847212E-01
  5.66238795E-01  2.09483196E-02  0.00000000E+00  0.00000000E+00  0.00000000E+00
  0.00000000E+00  0.00000000E+00  0.00000000E+00  0.00000000E+00  0.00000000E+00
  0.00000000E+00  0.00000000E+00  0.00000000E+00  0.00000000E+00  0.00000000E+00
  0.00000000E+00  0.00000000E+00  0.00000000E+00  0.00000000E+00  0.00000000E+00
 -1.56637890E-16  0.00000000E+00  0.00000000E+00  1.38835420E-15  0.00000000E+00
  0.00000000E+00  0.00000000E+00  0.00000000E+00  0.00000000E+00  0.00000000E+00
  0.00000000E+00  0.00000000E+00  1.17576436E-01  0.00000000E+00  0.00000000E+00
 -2.14367358E-01  0.00000000E+00  0.00000000E+00  8.07428963E-02  0.00000000E+00
  0.00000000E+00  2.41150810E-01  0.00000000E+00  0.00000000E+00  5.39072530E-01
  0.00000000E+00  0.00000000E+00  3.33441037E-01  0.00000000E+00  0.00000000E+00
  0.00000000E+00  0.00000000E+00  0.00000000E+00  0.00000000E+00  0.00000000E+00
  0.00000000E+00  0.00000000E+00  0.00000000E+00  0.00000000E+00  0.00000000E+00
  0.00000000E+00  0.00000000E+00  0.00000000E+00  0.00000000E+00  1.17576436E-01
  0.00000000E+00  0.00000000E+00 -2.14367358E-01  0.00000000E+00  0.00000000E+00
  8.07428963E-02  0.00000000E+00  0.00000000E+00  2.41150810E-01  0.00000000E+00
  0.00000000E+00  5.39072530E-01  0.00000000E+00  0.00000000E+00  3.33441037E-01