fubar                                                                   
SP        UPBE1PBE                                                    6-311+G(d,p)        
Number of atoms                            I                1
Info1-9                                    I   N=           9
          11          10           0           0           0         110
           1          18       -1302
Full Title                                 C   N=           1
fubar       
Route                                      C   N=           3
#PBE1PBE/6-311+G(d,p) scf=tight     
Charge                                     I               -1
Multiplicity                               I                3
Number of electrons                        I                6
Number of alpha electrons                  I                4
Number of beta electrons                   I                2
Number of basis functions                  I               22
Number of independent functions            I               22
Number of point charges in /Mol/           I                0
Number of translation vectors              I                0
Atomic numbers                             I   N=           1
           5
Nuclear charges                            R   N=           1
  5.00000000E+00
Current cartesian coordinates              R   N=           3
  0.00000000E+00  0.00000000E+00  0.00000000E+00
Number of symbols in /Mol/                 I                0
Int Atom Types                             I   N=           1
           0
Force Field                                I                0
Atom Types                                 C   N=           1
            
MM charges                                 R   N=           1
  0.00000000E+00
Integer atomic weights                     I   N=           1
          11
Real atomic weights                        R   N=           1
  1.10093053E+01
Atom fragment info                         I   N=           1
           0
Atom residue num                           I   N=           1
           0
Nuclear spins                              I   N=           1
           3
Nuclear ZEff                               R   N=           1
 -2.75000000E+00
Nuclear ZNuc                               R   N=           1
  5.00000000E+00
Nuclear QMom                               R   N=           1
  4.05900000E+00
Nuclear GFac                               R   N=           1
  2.68863700E+00
MicOpt                                     I   N=           1
          -1
Number of residues                         I                0
Number of secondary structures             I                0
SymInf integers                            I   N=          26
           1           8           1           1           1           1
          -1          -1          -1           1          -1          -1
          -1           1          -1          -1          -1          -1
           1           1           1          -1           1           1
           1          -1
RotTr to input orientation                 R   N=          12
  0.00000000E+00  0.00000000E+00 -1.00000000E+00  0.00000000E+00  1.00000000E+00
  0.00000000E+00  1.00000000E+00  0.00000000E+00  0.00000000E+00  0.00000000E+00
  0.00000000E+00  0.00000000E+00
Number of contracted shells                I                6
Number of primitive shells                 I               13
Pure/Cartesian d shells                    I                0
Pure/Cartesian f shells                    I                0
Highest angular momentum                   I                2
Largest degree of contraction              I                6
Shell types                                I   N=           6
           0          -1          -1          -1          -1          -2
Number of primitives per shell             I   N=           6
           6           3           1           1           1           1
Shell to atom map                          I   N=           6
           1           1           1           1           1           1
Primitive exponents                        R   N=          13
  2.85889000E+03  4.28140000E+02  9.75282000E+01  2.79693000E+01  8.21577000E+00
  1.11278000E+00  1.32415000E+01  3.00166000E+00  9.12856000E-01  3.15454000E-01
  9.88563000E-02  3.15000000E-02  4.01000000E-01
Contraction coefficients                   R   N=          13
  2.15374907E-03  1.65822928E-02  8.21869644E-02  2.76617880E-01  6.29315727E-01
  1.73769925E-01  1.17442942E-01  9.18001549E-01 -2.65104870E-03  1.00000000E+00
  1.00000000E+00  1.00000000E+00  1.00000000E+00
P(S=P) Contraction coefficients            R   N=          13
  0.00000000E+00  0.00000000E+00  0.00000000E+00  0.00000000E+00  0.00000000E+00
  0.00000000E+00  4.18099989E-02  2.36574994E-01  8.16213978E-01  1.00000000E+00
  1.00000000E+00  1.00000000E+00  0.00000000E+00
Coordinates of each shell                  R   N=          18
  0.00000000E+00  0.00000000E+00  0.00000000E+00  0.00000000E+00  0.00000000E+00
  0.00000000E+00  0.00000000E+00  0.00000000E+00  0.00000000E+00  0.00000000E+00
  0.00000000E+00  0.00000000E+00  0.00000000E+00  0.00000000E+00  0.00000000E+00
  0.00000000E+00  0.00000000E+00  0.00000000E+00
Num ILSW                                   I              100
ILSW                                       I   N=         100
           1           0           0           0           2           0
           0           0           0           0        1009          -1
           5           0           0           0           0           0
           0           0           0           0           0           0
           1           0           0           0           0           0
           0           0      100000           0          -1           0
           0           0           0           0           0           0
           0           0           0           1           0           0
           0 -2000000000           1           0           0           0
           0           1           4          52           0           0
           0           0          13           0           0           0
           0           0           0           1           0           1
           0           0           0           0           0           0
           0           0           0           0           0           0
           0           0           0           0           0           0
           0           0           0           0           0           0
           0           0           0           0
Num RLSW                                   I               52
RLSW                                       R   N=          52
  7.50000000E-01  7.50000000E-01  1.00000000E+00  1.00000000E+00  2.50000000E-01
  0.00000000E+00  0.00000000E+00  1.00000000E+00  0.00000000E+00  0.00000000E+00
  0.00000000E+00  0.00000000E+00  1.00000000E+00  0.00000000E+00  0.00000000E+00
  0.00000000E+00  0.00000000E+00  1.00000000E+00  0.00000000E+00  0.00000000E+00
  0.00000000E+00  0.00000000E+00  1.00000000E+00  0.00000000E+00  0.00000000E+00
  0.00000000E+00  0.00000000E+00  1.00000000E+00  0.00000000E+00  0.00000000E+00
  0.00000000E+00  0.00000000E+00  1.00000000E+00  0.00000000E+00  0.00000000E+00
  0.00000000E+00  0.00000000E+00  0.00000000E+00  1.00000000E+00  1.00000000E+00
  0.00000000E+00  1.00000000E+00  0.00000000E+00  0.00000000E+00  0.00000000E+00
  0.00000000E+00  0.00000000E+00  0.00000000E+00  0.00000000E+00  0.00000000E+00
  0.00000000E+00  0.00000000E+00
MxBond                                     I                1
NBond                                      I   N=           1
           0
IBond                                      I   N=           1
           0
RBond                                      R   N=           1
  0.00000000E+00
Virial Ratio                               R      2.003062147225484E+00
SCF Energy                                 R     -2.463247077566012E+01
Total Energy                               R     -2.463247077566012E+01
S**2                                       R      2.001995405594805E+00
S**2 after annihilation                    R      2.000000001900195E+00
RMS Density                                R      2.194681331189791E-09
Job Status                                 I                1
Nuclear derivative order                   I                0
External E-field                           R   N=          35
  0.00000000E+00  0.00000000E+00  0.00000000E+00  0.00000000E+00  0.00000000E+00
  0.00000000E+00  0.00000000E+00  0.00000000E+00  0.00000000E+00  0.00000000E+00
  0.00000000E+00  0.00000000E+00  0.00000000E+00  0.00000000E+00  0.00000000E+00
  0.00000000E+00  0.00000000E+00  0.00000000E+00  0.00000000E+00  0.00000000E+00
  0.00000000E+00  0.00000000E+00  0.00000000E+00  0.00000000E+00  0.00000000E+00
  0.00000000E+00  0.00000000E+00  0.00000000E+00  0.00000000E+00  0.00000000E+00
  0.00000000E+00  0.00000000E+00  0.00000000E+00  0.00000000E+00  0.00000000E+00
IOpCl                                      I                1
IROHF                                      I                0
Alpha Orbital Energies                     R   N=          22
 -6.61865711E+00 -1.65573864E-01  5.13439712E-02  5.13439712E-02  1.25058154E-01
  1.68482612E-01  1.92876181E-01  1.92876181E-01  2.10190777E-01  5.80426663E-01
  5.80426663E-01  5.96856943E-01  6.49790542E-01  1.05717569E+00  1.05717569E+00
  1.06319390E+00  1.06319390E+00  1.07274096E+00  2.02508296E+00  2.02508296E+00
  2.03556361E+00  1.41329838E+01
Beta Orbital Energies                      R   N=          22
 -6.60558857E+00 -9.40164522E-02  1.43093825E-01  1.61308315E-01  1.61308315E-01
  1.95656583E-01  2.27794665E-01  2.50337873E-01  2.50337873E-01  6.10792756E-01
  6.36124969E-01  6.36124969E-01  6.90258115E-01  1.10010260E+00  1.11043566E+00
  1.11043566E+00  1.14075028E+00  1.14075028E+00  2.04437460E+00  2.07382571E+00
  2.07382571E+00  1.41464917E+01
Alpha MO coefficients                      R   N=         484
  5.77591652E-01  4.55305333E-01  0.00000000E+00  0.00000000E+00  0.00000000E+00
  1.27577785E-02  0.00000000E+00  0.00000000E+00  0.00000000E+00 -7.32036922E-03
  0.00000000E+00  0.00000000E+00  0.00000000E+00  2.63595001E-03  0.00000000E+00
  0.00000000E+00  0.00000000E+00  1.81020859E-04  0.00000000E+00  0.00000000E+00
 -3.13537326E-04  0.00000000E+00 -1.21399911E-01 -1.90963044E-01  0.00000000E+00
  0.00000000E+00  0.00000000E+00  5.21430670E-01  0.00000000E+00  0.00000000E+00
  0.00000000E+00  5.30474589E-01  0.00000000E+00  0.00000000E+00  0.00000000E+00
  7.83050084E-02  0.00000000E+00  0.00000000E+00  0.00000000E+00  6.14507965E-03
  0.00000000E+00  0.00000000E+00 -1.06435902E-02  0.00000000E+00  0.00000000E+00
  0.00000000E+00  0.00000000E+00  2.09864099E-01  0.00000000E+00  0.00000000E+00
  0.00000000E+00  3.37619533E-01  0.00000000E+00  0.00000000E+00  0.00000000E+00
  3.69833139E-01  0.00000000E+00  0.00000000E+00  0.00000000E+00  3.79124770E-01
  0.00000000E+00  0.00000000E+00  0.00000000E+00  0.00000000E+00  0.00000000E+00
  0.00000000E+00  0.00000000E+00  0.00000000E+00  0.00000000E+00  0.00000000E+00
  2.09864099E-01  0.00000000E+00  0.00000000E+00  0.00000000E+00  3.37619533E-01
  0.00000000E+00  0.00000000E+00  0.00000000E+00  3.69833139E-01  0.00000000E+00
  0.00000000E+00  0.00000000E+00  3.79124770E-01  0.00000000E+00  0.00000000E+00
  0.00000000E+00  0.00000000E+00  0.00000000E+00  0.00000000E+00  0.00000000E+00
  1.53274599E-01  0.00000000E+00  0.00000000E+00  0.00000000E+00  2.76612563E-01
  0.00000000E+00  0.00000000E+00  0.00000000E+00  2.02199775E-01  0.00000000E+00
  0.00000000E+00  0.00000000E+00  6.55798831E-01  0.00000000E+00  0.00000000E+00
  0.00000000E+00  0.00000000E+00  0.00000000E+00  0.00000000E+00  0.00000000E+00
  4.29972961E-02  6.15043539E-02  0.00000000E+00  0.00000000E+00  0.00000000E+00
 -6.58986838E-02  0.00000000E+00  0.00000000E+00  0.00000000E+00 -1.13050717E+00
  0.00000000E+00  0.00000000E+00  0.00000000E+00  1.60647152E+00  0.00000000E+00
  0.00000000E+00  0.00000000E+00 -4.50366233E-04  0.00000000E+00  0.00000000E+00
  7.80057197E-04  0.00000000E+00  0.00000000E+00  0.00000000E+00  0.00000000E+00
  0.00000000E+00 -1.66767564E-01  0.00000000E+00  0.00000000E+00  0.00000000E+00
 -1.38716952E-01  0.00000000E+00  0.00000000E+00  0.00000000E+00 -7.72245396E-01
  0.00000000E+00  0.00000000E+00  0.00000000E+00  1.23745713E+00  0.00000000E+00
  0.00000000E+00  0.00000000E+00  0.00000000E+00  0.00000000E+00  0.00000000E+00
  0.00000000E+00  0.00000000E+00 -1.66767564E-01  0.00000000E+00  0.00000000E+00
  0.00000000E+00 -1.38716952E-01  0.00000000E+00  0.00000000E+00  0.00000000E+00
 -7.72245396E-01  0.00000000E+00  0.00000000E+00  0.00000000E+00  1.23745713E+00
  0.00000000E+00  0.00000000E+00  0.00000000E+00  0.00000000E+00  0.00000000E+00
  0.00000000E+00  0.00000000E+00  0.00000000E+00 -2.00263233E-01  0.00000000E+00
  0.00000000E+00  0.00000000E+00 -1.87483639E-01  0.00000000E+00  0.00000000E+00
  0.00000000E+00 -8.89498321E-01  0.00000000E+00  0.00000000E+00  0.00000000E+00
  1.12892807E+00  0.00000000E+00  0.00000000E+00  0.00000000E+00  0.00000000E+00
  0.00000000E+00  0.00000000E+00  0.00000000E+00  0.00000000E+00  0.00000000E+00
  0.00000000E+00  0.00000000E+00 -2.46555834E-01  0.00000000E+00  0.00000000E+00
  0.00000000E+00 -1.03753331E+00  0.00000000E+00  0.00000000E+00  0.00000000E+00
  1.63183036E+00  0.00000000E+00  0.00000000E+00  0.00000000E+00 -6.77966981E-01
  0.00000000E+00  0.00000000E+00  0.00000000E+00  0.00000000E+00  0.00000000E+00
  0.00000000E+00  0.00000000E+00  0.00000000E+00 -2.46555834E-01  0.00000000E+00
  0.00000000E+00  0.00000000E+00 -1.03753331E+00  0.00000000E+00  0.00000000E+00
  0.00000000E+00  1.63183036E+00  0.00000000E+00  0.00000000E+00  0.00000000E+00
 -6.77966981E-01  0.00000000E+00  0.00000000E+00  0.00000000E+00  0.00000000E+00
  0.00000000E+00  0.00000000E+00  0.00000000E+00  0.00000000E+00 -2.49224252E-01
  0.00000000E+00  0.00000000E+00  0.00000000E+00 -1.05931057E+00  0.00000000E+00
  0.00000000E+00  0.00000000E+00  1.60434438E+00  0.00000000E+00  0.00000000E+00
  0.00000000E+00 -6.56834166E-01  0.00000000E+00  0.00000000E+00  0.00000000E+00
  0.00000000E+00  0.00000000E+00  0.00000000E+00  0.00000000E+00  1.29504834E-01
  2.70193079E-01  0.00000000E+00  0.00000000E+00  0.00000000E+00 -1.99673037E+00
  0.00000000E+00  0.00000000E+00  0.00000000E+00  2.55224001E+00  0.00000000E+00
  0.00000000E+00  0.00000000E+00 -1.02472947E+00  0.00000000E+00  0.00000000E+00
  0.00000000E+00 -2.25731485E-03  0.00000000E+00  0.00000000E+00  3.90978401E-03
  0.00000000E+00  6.01262561E-16  9.39385262E-16  0.00000000E+00  0.00000000E+00
  0.00000000E+00 -8.37651896E-15  0.00000000E+00  0.00000000E+00  0.00000000E+00
  1.06385433E-14  0.00000000E+00  0.00000000E+00  0.00000000E+00 -4.42097025E-15
  0.00000000E+00  0.00000000E+00  0.00000000E+00  8.66025404E-01  0.00000000E+00
  0.00000000E+00  5.00000000E-01  0.00000000E+00  0.00000000E+00  0.00000000E+00
  0.00000000E+00  0.00000000E+00  0.00000000E+00  0.00000000E+00  0.00000000E+00
  0.00000000E+00  0.00000000E+00  0.00000000E+00  0.00000000E+00  0.00000000E+00
  0.00000000E+00  0.00000000E+00  0.00000000E+00  0.00000000E+00  0.00000000E+00
  0.00000000E+00  0.00000000E+00  1.00000000E+00  0.00000000E+00  0.00000000E+00
  0.00000000E+00  0.00000000E+00  0.00000000E+00  0.00000000E+00  0.00000000E+00
  0.00000000E+00  0.00000000E+00  0.00000000E+00  0.00000000E+00  0.00000000E+00
  0.00000000E+00  0.00000000E+00  0.00000000E+00  0.00000000E+00  0.00000000E+00
  0.00000000E+00  0.00000000E+00  0.00000000E+00  1.00000000E+00  0.00000000E+00
  0.00000000E+00  0.00000000E+00  0.00000000E+00  0.00000000E+00  0.00000000E+00
  0.00000000E+00  0.00000000E+00  0.00000000E+00  0.00000000E+00  0.00000000E+00
  0.00000000E+00  0.00000000E+00  0.00000000E+00  0.00000000E+00  0.00000000E+00
  0.00000000E+00  0.00000000E+00  0.00000000E+00  0.00000000E+00  0.00000000E+00
  0.00000000E+00  0.00000000E+00  0.00000000E+00  1.00000000E+00 -1.97359305E-03
 -3.38414854E-03  0.00000000E+00  0.00000000E+00  0.00000000E+00  1.54691475E-02
  0.00000000E+00  0.00000000E+00  0.00000000E+00 -3.97246028E-03  0.00000000E+00
  0.00000000E+00  0.00000000E+00  4.13758034E-03  0.00000000E+00  0.00000000E+00
  0.00000000E+00 -4.99956905E-01  0.00000000E+00  0.00000000E+00  8.65950761E-01
  0.00000000E+00  0.00000000E+00  0.00000000E+00  0.00000000E+00 -1.37132676E+00
  0.00000000E+00  0.00000000E+00  0.00000000E+00  1.65464227E+00  0.00000000E+00
  0.00000000E+00  0.00000000E+00 -9.14996664E-01  0.00000000E+00  0.00000000E+00
  0.00000000E+00  3.02031226E-01  0.00000000E+00  0.00000000E+00  0.00000000E+00
  0.00000000E+00  0.00000000E+00  0.00000000E+00  0.00000000E+00  0.00000000E+00
  0.00000000E+00  0.00000000E+00 -1.37132676E+00  0.00000000E+00  0.00000000E+00
  0.00000000E+00  1.65464227E+00  0.00000000E+00  0.00000000E+00  0.00000000E+00
 -9.14996664E-01  0.00000000E+00  0.00000000E+00  0.00000000E+00  3.02031226E-01
  0.00000000E+00  0.00000000E+00  0.00000000E+00  0.00000000E+00  0.00000000E+00
  0.00000000E+00  0.00000000E+00 -1.37385226E+00  0.00000000E+00  0.00000000E+00
  0.00000000E+00  1.64734399E+00  0.00000000E+00  0.00000000E+00  0.00000000E+00
 -9.09514046E-01  0.00000000E+00  0.00000000E+00  0.00000000E+00  2.99860003E-01
  0.00000000E+00  0.00000000E+00  0.00000000E+00  0.00000000E+00  0.00000000E+00
  0.00000000E+00  0.00000000E+00 -1.88671000E+00  2.06591876E+00  0.00000000E+00
  0.00000000E+00  0.00000000E+00 -5.37656884E-01  0.00000000E+00  0.00000000E+00
  0.00000000E+00  4.23054708E-01  0.00000000E+00  0.00000000E+00  0.00000000E+00
 -1.51370222E-01  0.00000000E+00  0.00000000E+00  0.00000000E+00  1.77863993E-05
  0.00000000E+00  0.00000000E+00 -3.08069474E-05  0.00000000E+00
Beta MO coefficients                       R   N=         484
  5.78630205E-01  4.54959971E-01  0.00000000E+00  0.00000000E+00  0.00000000E+00
  1.06806994E-02  0.00000000E+00  0.00000000E+00  0.00000000E+00 -6.55130700E-03
  0.00000000E+00  0.00000000E+00  0.00000000E+00  2.30099944E-03  0.00000000E+00
  0.00000000E+00  0.00000000E+00 -1.48041640E-04  0.00000000E+00  0.00000000E+00
  2.56415643E-04  0.00000000E+00 -1.19977996E-01 -1.86082542E-01  0.00000000E+00
  0.00000000E+00  0.00000000E+00  5.07011438E-01  0.00000000E+00  0.00000000E+00
  0.00000000E+00  5.22903133E-01  0.00000000E+00  0.00000000E+00  0.00000000E+00
  1.05149983E-01  0.00000000E+00  0.00000000E+00  0.00000000E+00 -1.33724856E-02
  0.00000000E+00  0.00000000E+00  2.31618244E-02  0.00000000E+00  0.00000000E+00
  0.00000000E+00  1.53665435E-01  0.00000000E+00  0.00000000E+00  0.00000000E+00
  2.71191369E-01  0.00000000E+00  0.00000000E+00  0.00000000E+00  1.92058812E-01
  0.00000000E+00  0.00000000E+00  0.00000000E+00  6.69813322E-01  0.00000000E+00
  0.00000000E+00  0.00000000E+00  0.00000000E+00  0.00000000E+00  0.00000000E+00
  0.00000000E+00  0.00000000E+00  0.00000000E+00  0.00000000E+00  1.15808792E-01
  0.00000000E+00  0.00000000E+00  0.00000000E+00  2.17891291E-01  0.00000000E+00
  0.00000000E+00  0.00000000E+00  5.51016225E-02  0.00000000E+00  0.00000000E+00
  0.00000000E+00  8.45886474E-01  0.00000000E+00  0.00000000E+00  0.00000000E+00
  0.00000000E+00  0.00000000E+00  0.00000000E+00  0.00000000E+00  0.00000000E+00
  0.00000000E+00  0.00000000E+00  1.15808792E-01  0.00000000E+00  0.00000000E+00
  0.00000000E+00  2.17891291E-01  0.00000000E+00  0.00000000E+00  0.00000000E+00
  5.51016225E-02  0.00000000E+00  0.00000000E+00  0.00000000E+00  8.45886474E-01
  0.00000000E+00  0.00000000E+00  0.00000000E+00  0.00000000E+00  0.00000000E+00
  4.38691717E-02  6.11093429E-02  0.00000000E+00  0.00000000E+00  0.00000000E+00
 -4.89815392E-02  0.00000000E+00  0.00000000E+00  0.00000000E+00 -1.17616321E+00
  0.00000000E+00  0.00000000E+00  0.00000000E+00  1.61844105E+00  0.00000000E+00
  0.00000000E+00  0.00000000E+00  4.46047543E-03  0.00000000E+00  0.00000000E+00
 -7.72577008E-03  0.00000000E+00  0.00000000E+00  0.00000000E+00 -2.05624910E-01
  0.00000000E+00  0.00000000E+00  0.00000000E+00 -1.92666344E-01  0.00000000E+00
  0.00000000E+00  0.00000000E+00 -8.86748404E-01  0.00000000E+00  0.00000000E+00
  0.00000000E+00  1.11817198E+00  0.00000000E+00  0.00000000E+00  0.00000000E+00
  0.00000000E+00  0.00000000E+00  0.00000000E+00  0.00000000E+00  0.00000000E+00
  0.00000000E+00  0.00000000E+00  0.00000000E+00 -2.26264681E-01  0.00000000E+00
  0.00000000E+00  0.00000000E+00 -2.00483479E-01  0.00000000E+00  0.00000000E+00
  0.00000000E+00 -9.56131017E-01  0.00000000E+00  0.00000000E+00  0.00000000E+00
  1.00477215E+00  0.00000000E+00  0.00000000E+00  0.00000000E+00  0.00000000E+00
  0.00000000E+00  0.00000000E+00  0.00000000E+00  0.00000000E+00 -2.26264681E-01
  0.00000000E+00  0.00000000E+00  0.00000000E+00 -2.00483479E-01  0.00000000E+00
  0.00000000E+00  0.00000000E+00 -9.56131017E-01  0.00000000E+00  0.00000000E+00
  0.00000000E+00  1.00477215E+00  0.00000000E+00  0.00000000E+00  0.00000000E+00
  0.00000000E+00  0.00000000E+00  0.00000000E+00  0.00000000E+00  0.00000000E+00
 -2.50750676E-01  0.00000000E+00  0.00000000E+00  0.00000000E+00 -1.05543673E+00
  0.00000000E+00  0.00000000E+00  0.00000000E+00  1.60657527E+00  0.00000000E+00
  0.00000000E+00  0.00000000E+00 -6.60781289E-01  0.00000000E+00  0.00000000E+00
  0.00000000E+00  0.00000000E+00  0.00000000E+00  0.00000000E+00  0.00000000E+00
  0.00000000E+00  0.00000000E+00  0.00000000E+00  0.00000000E+00 -2.56467629E-01
  0.00000000E+00  0.00000000E+00  0.00000000E+00 -1.06707112E+00  0.00000000E+00
  0.00000000E+00  0.00000000E+00  1.58034527E+00  0.00000000E+00  0.00000000E+00
  0.00000000E+00 -6.41822930E-01  0.00000000E+00  0.00000000E+00  0.00000000E+00
  0.00000000E+00  0.00000000E+00  0.00000000E+00  0.00000000E+00  0.00000000E+00
 -2.56467629E-01  0.00000000E+00  0.00000000E+00  0.00000000E+00 -1.06707112E+00
  0.00000000E+00  0.00000000E+00  0.00000000E+00  1.58034527E+00  0.00000000E+00
  0.00000000E+00  0.00000000E+00 -6.41822930E-01  0.00000000E+00  0.00000000E+00
  0.00000000E+00  0.00000000E+00  0.00000000E+00  0.00000000E+00  1.31239343E-01
  2.70870124E-01  0.00000000E+00  0.00000000E+00  0.00000000E+00 -2.00035609E+00
  0.00000000E+00  0.00000000E+00  0.00000000E+00  2.53299898E+00  0.00000000E+00
  0.00000000E+00  0.00000000E+00 -1.00324592E+00  0.00000000E+00  0.00000000E+00
  0.00000000E+00  5.33011835E-03  0.00000000E+00  0.00000000E+00 -9.23203579E-03
  0.00000000E+00  5.72613475E-03  7.29695200E-03  0.00000000E+00  0.00000000E+00
  0.00000000E+00 -3.50844720E-02  0.00000000E+00  0.00000000E+00  0.00000000E+00
  2.32667577E-03  0.00000000E+00  0.00000000E+00  0.00000000E+00  1.00270186E-03
  0.00000000E+00  0.00000000E+00  0.00000000E+00 -4.99772741E-01  0.00000000E+00
  0.00000000E+00  8.65631779E-01  0.00000000E+00  0.00000000E+00  0.00000000E+00
  0.00000000E+00  0.00000000E+00  0.00000000E+00  0.00000000E+00  0.00000000E+00
  0.00000000E+00  0.00000000E+00  0.00000000E+00  0.00000000E+00  0.00000000E+00
  0.00000000E+00  0.00000000E+00  0.00000000E+00  0.00000000E+00  0.00000000E+00
  0.00000000E+00  1.00000000E+00  0.00000000E+00  0.00000000E+00  0.00000000E+00
  0.00000000E+00  0.00000000E+00  0.00000000E+00  0.00000000E+00  0.00000000E+00
  0.00000000E+00  0.00000000E+00  0.00000000E+00  0.00000000E+00  0.00000000E+00
  0.00000000E+00  0.00000000E+00  0.00000000E+00  0.00000000E+00  0.00000000E+00
  0.00000000E+00  0.00000000E+00  0.00000000E+00  0.00000000E+00  0.00000000E+00
  0.00000000E+00  1.00000000E+00  0.00000000E+00  0.00000000E+00  0.00000000E+00
  0.00000000E+00  0.00000000E+00  0.00000000E+00  0.00000000E+00  0.00000000E+00
  0.00000000E+00  0.00000000E+00  0.00000000E+00  0.00000000E+00  0.00000000E+00
  0.00000000E+00  0.00000000E+00  0.00000000E+00  0.00000000E+00  0.00000000E+00
  0.00000000E+00  1.00000000E+00  0.00000000E+00  0.00000000E+00  1.01091092E-15
  1.54700422E-15  0.00000000E+00  0.00000000E+00  0.00000000E+00 -1.17189601E-14
  0.00000000E+00  0.00000000E+00  0.00000000E+00  1.40531854E-14  0.00000000E+00
  0.00000000E+00  0.00000000E+00 -5.33513013E-15  0.00000000E+00  0.00000000E+00
  0.00000000E+00  8.66025404E-01  0.00000000E+00  0.00000000E+00  5.00000000E-01
  0.00000000E+00  0.00000000E+00  0.00000000E+00 -1.37273838E+00  0.00000000E+00
  0.00000000E+00  0.00000000E+00  1.65013150E+00  0.00000000E+00  0.00000000E+00
  0.00000000E+00 -9.10458827E-01  0.00000000E+00  0.00000000E+00  0.00000000E+00
  3.00511973E-01  0.00000000E+00  0.00000000E+00  0.00000000E+00  0.00000000E+00
  0.00000000E+00  0.00000000E+00  0.00000000E+00  0.00000000E+00  0.00000000E+00
  0.00000000E+00 -1.37215094E+00  0.00000000E+00  0.00000000E+00  0.00000000E+00
  1.64961654E+00  0.00000000E+00  0.00000000E+00  0.00000000E+00 -9.04718087E-01
  0.00000000E+00  0.00000000E+00  0.00000000E+00  2.98110985E-01  0.00000000E+00
  0.00000000E+00  0.00000000E+00  0.00000000E+00  0.00000000E+00  0.00000000E+00
  0.00000000E+00  0.00000000E+00  0.00000000E+00  0.00000000E+00 -1.37215094E+00
  0.00000000E+00  0.00000000E+00  0.00000000E+00  1.64961654E+00  0.00000000E+00
  0.00000000E+00  0.00000000E+00 -9.04718087E-01  0.00000000E+00  0.00000000E+00
  0.00000000E+00  2.98110985E-01  0.00000000E+00  0.00000000E+00  0.00000000E+00
  0.00000000E+00  0.00000000E+00 -1.88633511E+00  2.06635312E+00  0.00000000E+00
  0.00000000E+00  0.00000000E+00 -5.38899303E-01  0.00000000E+00  0.00000000E+00
  0.00000000E+00  4.23678842E-01  0.00000000E+00  0.00000000E+00  0.00000000E+00
 -1.51569316E-01  0.00000000E+00  0.00000000E+00  0.00000000E+00 -2.37404691E-04
  0.00000000E+00  0.00000000E+00  4.11196986E-04  0.00000000E+00
Orthonormal basis                          R   N=         484
  2.20797284E-01  2.44739916E-01  0.00000000E+00  0.00000000E+00  0.00000000E+00
  3.17216832E-01  0.00000000E+00  0.00000000E+00  0.00000000E+00  3.16446712E-01
  0.00000000E+00  0.00000000E+00  0.00000000E+00  2.52983204E-01  0.00000000E+00
  0.00000000E+00  0.00000000E+00 -2.09373514E-17  0.00000000E+00  0.00000000E+00
  2.09373514E-17  0.00000000E+00  4.61749599E-01  4.38802802E-01  0.00000000E+00
  0.00000000E+00  0.00000000E+00 -8.86709436E-02  0.00000000E+00  0.00000000E+00
  0.00000000E+00 -3.00746831E-01  0.00000000E+00  0.00000000E+00  0.00000000E+00
 -3.40130709E-01  0.00000000E+00  0.00000000E+00  0.00000000E+00  5.43865477E-17
  0.00000000E+00  0.00000000E+00 -5.43865477E-17  0.00000000E+00 -3.92746622E-30
  8.46277571E-30  0.00000000E+00  0.00000000E+00  0.00000000E+00 -2.42746860E-29
  0.00000000E+00  0.00000000E+00  0.00000000E+00  3.75975048E-29  0.00000000E+00
  0.00000000E+00  0.00000000E+00 -2.13795293E-29  0.00000000E+00  0.00000000E+00
  0.00000000E+00  7.07106781E-01  0.00000000E+00  0.00000000E+00  7.07106781E-01
  0.00000000E+00 -4.03063233E-17 -3.32192766E-17  0.00000000E+00  0.00000000E+00
  0.00000000E+00  7.13922023E-17  0.00000000E+00  0.00000000E+00  0.00000000E+00
 -4.29448159E-17  0.00000000E+00  0.00000000E+00  0.00000000E+00  1.49290556E-16
  0.00000000E+00  0.00000000E+00  0.00000000E+00  7.07106781E-01  0.00000000E+00
  0.00000000E+00 -7.07106781E-01  0.00000000E+00 -3.68459642E-01 -8.05597253E-02
  0.00000000E+00  0.00000000E+00  0.00000000E+00  9.76905517E-01  0.00000000E+00
  0.00000000E+00  0.00000000E+00  9.10528333E-02  0.00000000E+00  0.00000000E+00
  0.00000000E+00 -9.39323918E-01  0.00000000E+00  0.00000000E+00  0.00000000E+00
  4.01489061E-17  0.00000000E+00  0.00000000E+00 -4.01489061E-17  0.00000000E+00
 -1.76988531E+00  1.82655534E+00  0.00000000E+00  0.00000000E+00  0.00000000E+00
  8.31502523E-02  0.00000000E+00  0.00000000E+00  0.00000000E+00 -7.05353029E-01
  0.00000000E+00  0.00000000E+00  0.00000000E+00  5.55708261E-01  0.00000000E+00
  0.00000000E+00  0.00000000E+00 -9.02899546E-17  0.00000000E+00  0.00000000E+00
  9.02899546E-17  0.00000000E+00 -6.29625441E-01  9.96668901E-01  0.00000000E+00
  0.00000000E+00  0.00000000E+00 -1.86625141E+00  0.00000000E+00  0.00000000E+00
  0.00000000E+00  2.74882207E+00  0.00000000E+00  0.00000000E+00  0.00000000E+00
 -1.51296378E+00  0.00000000E+00  0.00000000E+00  0.00000000E+00  3.33589587E-16
  0.00000000E+00  0.00000000E+00 -3.33589587E-16  0.00000000E+00  0.00000000E+00
  0.00000000E+00  0.00000000E+00  0.00000000E+00  0.00000000E+00  0.00000000E+00
  0.00000000E+00  0.00000000E+00  0.00000000E+00  0.00000000E+00  0.00000000E+00
  0.00000000E+00  0.00000000E+00  0.00000000E+00  0.00000000E+00  0.00000000E+00
  0.00000000E+00  0.00000000E+00  0.00000000E+00  0.00000000E+00  0.00000000E+00
  1.00000000E+00  0.00000000E+00  0.00000000E+00  0.00000000E+00  0.00000000E+00
  0.00000000E+00  0.00000000E+00  0.00000000E+00  0.00000000E+00  0.00000000E+00
  0.00000000E+00  0.00000000E+00  0.00000000E+00  0.00000000E+00  0.00000000E+00
  0.00000000E+00  0.00000000E+00  0.00000000E+00  0.00000000E+00  1.00000000E+00
  0.00000000E+00  0.00000000E+00  0.00000000E+00  0.00000000E+00  0.00000000E+00
  0.00000000E+00  0.00000000E+00  0.00000000E+00  0.00000000E+00  0.00000000E+00
  0.00000000E+00  0.00000000E+00  0.00000000E+00  0.00000000E+00  0.00000000E+00
  0.00000000E+00  0.00000000E+00  0.00000000E+00  0.00000000E+00  0.00000000E+00
  0.00000000E+00  0.00000000E+00  1.00000000E+00  0.00000000E+00  0.00000000E+00
  0.00000000E+00  0.00000000E+00  0.00000000E+00  0.00000000E+00  2.64713356E-01
  0.00000000E+00  0.00000000E+00  0.00000000E+00  3.73230619E-01  0.00000000E+00
  0.00000000E+00  0.00000000E+00  3.78748627E-01  0.00000000E+00  0.00000000E+00
  0.00000000E+00  2.77688075E-01  0.00000000E+00  0.00000000E+00  0.00000000E+00
  0.00000000E+00  0.00000000E+00  0.00000000E+00  0.00000000E+00  0.00000000E+00
  0.00000000E+00  5.99191960E-01  0.00000000E+00  0.00000000E+00  0.00000000E+00
  3.04989471E-01  0.00000000E+00  0.00000000E+00  0.00000000E+00 -2.96244438E-01