fubar                                                                   
SP        UPBE1PBE                                                    6-311+G(d,p)        
Number of atoms                            I                1
Info1-9                                    I   N=           9
          11          10           0           0           0         110
           1          18       -1302
Full Title                                 C   N=           1
fubar       
Route                                      C   N=           3
#PBE1PBE/6-311+G(d,p) scf=tight     
Charge                                     I                3
Multiplicity                               I                2
Number of electrons                        I               13
Number of alpha electrons                  I                7
Number of beta electrons                   I                6
Number of basis functions                  I               30
Number of independent functions            I               30
Number of point charges in /Mol/           I                0
Number of translation vectors              I                0
Atomic numbers                             I   N=           1
          16
Nuclear charges                            R   N=           1
  1.60000000E+01
Current cartesian coordinates              R   N=           3
  0.00000000E+00  0.00000000E+00  0.00000000E+00
Number of symbols in /Mol/                 I                0
Int Atom Types                             I   N=           1
           0
Force Field                                I                0
Atom Types                                 C   N=           1
            
MM charges                                 R   N=           1
  0.00000000E+00
Integer atomic weights                     I   N=           1
          32
Real atomic weights                        R   N=           1
  3.19720718E+01
Atom fragment info                         I   N=           1
           0
Atom residue num                           I   N=           1
           0
Nuclear spins                              I   N=           1
           0
Nuclear ZEff                               R   N=           1
 -1.36000000E+01
Nuclear ZNuc                               R   N=           1
  1.60000000E+01
Nuclear QMom                               R   N=           1
  0.00000000E+00
Nuclear GFac                               R   N=           1
  0.00000000E+00
MicOpt                                     I   N=           1
          -1
Number of residues                         I                0
Number of secondary structures             I                0
SymInf integers                            I   N=          26
           1           8           1           1           1           1
          -1          -1          -1           1          -1          -1
          -1           1          -1          -1          -1          -1
           1           1           1          -1           1           1
           1          -1
RotTr to input orientation                 R   N=          12
  0.00000000E+00  0.00000000E+00 -1.00000000E+00  0.00000000E+00  1.00000000E+00
  0.00000000E+00  1.00000000E+00  0.00000000E+00  0.00000000E+00  0.00000000E+00
  0.00000000E+00  0.00000000E+00
Number of contracted shells                I               13
Number of primitive shells                 I               24
Pure/Cartesian d shells                    I                0
Pure/Cartesian f shells                    I                0
Highest angular momentum                   I                2
Largest degree of contraction              I                6
Shell types                                I   N=          13
           0           0           0           0           0           0
          -1           1           1           1           1           1
          -2
Number of primitives per shell             I   N=          13
           6           3           1           1           1           1
           1           4           2           1           1           1
           1
Shell to atom map                          I   N=          13
           1           1           1           1           1           1
           1           1           1           1           1           1
           1
Primitive exponents                        R   N=          24
  9.34134000E+04  1.39617000E+04  3.16991000E+03  9.02456000E+02  2.97158000E+02
  1.08702000E+02  1.08702000E+02  4.31553000E+01  1.81079000E+01  5.56009000E+00
  2.13183000E+00  4.20403000E-01  1.36045000E-01  4.05000000E-02  4.95040000E+02
  1.17221000E+02  3.77749000E+01  1.40584000E+01  5.56574000E+00  2.26297000E+00
  8.07994000E-01  2.77460000E-01  7.71410000E-02  6.50000000E-01
Contraction coefficients                   R   N=          24
  7.42999957E-04  5.79299966E-03  2.99539983E-02  1.19027993E-01  3.68431979E-01
  5.77298966E-01  1.43186060E-01  6.24465262E-01  2.83366119E-01  1.00000000E+00
  1.00000000E+00  1.00000000E+00  1.00000000E+00  1.00000000E+00  8.30900251E-03
  6.40240194E-02  2.77614084E-01  7.45076225E-01  6.13711672E-01  4.43817763E-01
  1.00000000E+00  1.00000000E+00  1.00000000E+00  1.00000000E+00
P(S=P) Contraction coefficients            R   N=          24
  0.00000000E+00  0.00000000E+00  0.00000000E+00  0.00000000E+00  0.00000000E+00
  0.00000000E+00  0.00000000E+00  0.00000000E+00  0.00000000E+00  0.00000000E+00
  0.00000000E+00  0.00000000E+00  0.00000000E+00  1.00000000E+00  0.00000000E+00
  0.00000000E+00  0.00000000E+00  0.00000000E+00  0.00000000E+00  0.00000000E+00
  0.00000000E+00  0.00000000E+00  0.00000000E+00  0.00000000E+00
Coordinates of each shell                  R   N=          39
  0.00000000E+00  0.00000000E+00  0.00000000E+00  0.00000000E+00  0.00000000E+00
  0.00000000E+00  0.00000000E+00  0.00000000E+00  0.00000000E+00  0.00000000E+00
  0.00000000E+00  0.00000000E+00  0.00000000E+00  0.00000000E+00  0.00000000E+00
  0.00000000E+00  0.00000000E+00  0.00000000E+00  0.00000000E+00  0.00000000E+00
  0.00000000E+00  0.00000000E+00  0.00000000E+00  0.00000000E+00  0.00000000E+00
  0.00000000E+00  0.00000000E+00  0.00000000E+00  0.00000000E+00  0.00000000E+00
  0.00000000E+00  0.00000000E+00  0.00000000E+00  0.00000000E+00  0.00000000E+00
  0.00000000E+00  0.00000000E+00  0.00000000E+00  0.00000000E+00
Num ILSW                                   I              100
ILSW                                       I   N=         100
           1           0           0           0           2           0
           0           0           0           0        1009          -1
           5           0           0           0           0           0
           0           0           0           0           0           0
           1           0           0           0           0           0
           0           0      100000           0          -1           0
           0           0           0           0           0           0
           0           0           0           1           0           0
           0 -2000000000           1           0           0           0
           0           1           4          52           0           0
           0           0          13           0           0           0
           0           0           0           1           0           1
           0           0           0           0           0           0
           0           0           0           0           0           0
           0           0           0           0           0           0
           0           0           0           0           0           0
           0           0           0           0
Num RLSW                                   I               52
RLSW                                       R   N=          52
  7.50000000E-01  7.50000000E-01  1.00000000E+00  1.00000000E+00  2.50000000E-01
  0.00000000E+00  0.00000000E+00  1.00000000E+00  0.00000000E+00  0.00000000E+00
  0.00000000E+00  0.00000000E+00  1.00000000E+00  0.00000000E+00  0.00000000E+00
  0.00000000E+00  0.00000000E+00  1.00000000E+00  0.00000000E+00  0.00000000E+00
  0.00000000E+00  0.00000000E+00  1.00000000E+00  0.00000000E+00  0.00000000E+00
  0.00000000E+00  0.00000000E+00  1.00000000E+00  0.00000000E+00  0.00000000E+00
  0.00000000E+00  0.00000000E+00  1.00000000E+00  0.00000000E+00  0.00000000E+00
  0.00000000E+00  0.00000000E+00  0.00000000E+00  1.00000000E+00  1.00000000E+00
  0.00000000E+00  1.00000000E+00  0.00000000E+00  0.00000000E+00  0.00000000E+00
  0.00000000E+00  0.00000000E+00  0.00000000E+00  0.00000000E+00  0.00000000E+00
  0.00000000E+00  0.00000000E+00
MxBond                                     I                1
NBond                                      I   N=           1
           0
IBond                                      I   N=           1
           0
RBond                                      R   N=           1
  0.00000000E+00
Virial Ratio                               R      2.000980244433939E+00
SCF Energy                                 R     -3.954520212100768E+02
Total Energy                               R     -3.954520212100768E+02
S**2                                       R      7.536072869731782E-01
S**2 after annihilation                    R      7.500000149770901E-01
RMS Density                                R      2.421818113911372E-09
Job Status                                 I                1
Nuclear derivative order                   I                0
External E-field                           R   N=          35
  0.00000000E+00  0.00000000E+00  0.00000000E+00  0.00000000E+00  0.00000000E+00
  0.00000000E+00  0.00000000E+00  0.00000000E+00  0.00000000E+00  0.00000000E+00
  0.00000000E+00  0.00000000E+00  0.00000000E+00  0.00000000E+00  0.00000000E+00
  0.00000000E+00  0.00000000E+00  0.00000000E+00  0.00000000E+00  0.00000000E+00
  0.00000000E+00  0.00000000E+00  0.00000000E+00  0.00000000E+00  0.00000000E+00
  0.00000000E+00  0.00000000E+00  0.00000000E+00  0.00000000E+00  0.00000000E+00
  0.00000000E+00  0.00000000E+00  0.00000000E+00  0.00000000E+00  0.00000000E+00
IOpCl                                      I                1
IROHF                                      I                0
Alpha Orbital Energies                     R   N=          30
 -9.06721309E+01 -9.59623707E+00 -7.53639591E+00 -7.53639591E+00 -7.53123196E+00
 -2.00243748E+00 -1.56919729E+00 -1.43366090E+00 -1.43366090E+00 -6.72047177E-01
 -5.77631150E-01 -5.77631150E-01 -5.71375754E-01 -5.53471426E-01 -5.51981250E-01
 -5.51981249E-01 -5.49524601E-01 -5.49524601E-01 -2.85791198E-01 -2.85105859E-01
 -2.85105859E-01 -2.82030231E-01  4.97014133E-01  5.05020536E-01  5.05020536E-01
  6.11737620E+00  1.57979007E+01  1.57979007E+01  1.57981605E+01  1.87314977E+02
Beta Orbital Energies                      R   N=          30
 -9.06630772E+01 -9.58790192E+00 -7.53178302E+00 -7.53178302E+00 -7.50041001E+00
 -1.93552280E+00 -1.41165500E+00 -1.41165500E+00 -1.34448925E+00 -6.54865082E-01
 -5.43604200E-01 -5.43604200E-01 -5.41841651E-01 -5.41841651E-01 -5.24658867E-01
 -4.90373734E-01 -4.90373734E-01 -4.70538797E-01 -2.81847011E-01 -2.81847011E-01
 -2.73597169E-01 -2.70183829E-01  5.15669629E-01  5.15669629E-01  5.56126288E-01
  6.13592941E+00  1.58043944E+01  1.58043944E+01  1.58376940E+01  1.87322899E+02
Alpha MO coefficients                      R   N=         900
  4.11076257E-01  6.54316585E-01  1.48879006E-02 -4.07207977E-03  1.34006514E-03
 -7.61835474E-04  2.35907899E-04  0.00000000E+00  0.00000000E+00  0.00000000E+00
  0.00000000E+00  0.00000000E+00  0.00000000E+00  0.00000000E+00  0.00000000E+00
  0.00000000E+00  0.00000000E+00  0.00000000E+00  0.00000000E+00  0.00000000E+00
  0.00000000E+00  0.00000000E+00  0.00000000E+00  0.00000000E+00  0.00000000E+00
  3.63687104E-06  0.00000000E+00  0.00000000E+00 -6.29924542E-06  0.00000000E+00
 -1.20001052E-01 -3.21954844E-01  5.24228812E-01  5.90931251E-01  4.49381231E-02
 -1.60354089E-02  4.46346342E-03  0.00000000E+00  0.00000000E+00  0.00000000E+00
  0.00000000E+00  0.00000000E+00  0.00000000E+00  0.00000000E+00  0.00000000E+00
  0.00000000E+00  0.00000000E+00  0.00000000E+00  0.00000000E+00  0.00000000E+00
  0.00000000E+00  0.00000000E+00  0.00000000E+00  0.00000000E+00  0.00000000E+00
  2.09709286E-05  0.00000000E+00  0.00000000E+00 -3.63227139E-05  0.00000000E+00
  0.00000000E+00  0.00000000E+00  0.00000000E+00  0.00000000E+00  0.00000000E+00
  0.00000000E+00  0.00000000E+00  0.00000000E+00 -1.64936422E-03  0.00000000E+00
  0.00000000E+00  3.78536596E-01  0.00000000E+00  0.00000000E+00  7.09924039E-01
  0.00000000E+00  0.00000000E+00  5.30713769E-02  0.00000000E+00  0.00000000E+00
 -6.18010408E-03  0.00000000E+00  0.00000000E+00  3.18586079E-03  0.00000000E+00
  0.00000000E+00  0.00000000E+00  0.00000000E+00  0.00000000E+00  0.00000000E+00
  0.00000000E+00  0.00000000E+00  0.00000000E+00  0.00000000E+00  0.00000000E+00
  0.00000000E+00  0.00000000E+00  0.00000000E+00  0.00000000E+00 -1.64936422E-03
  0.00000000E+00  0.00000000E+00  3.78536596E-01  0.00000000E+00  0.00000000E+00
  7.09924039E-01  0.00000000E+00  0.00000000E+00  5.30713769E-02  0.00000000E+00
  0.00000000E+00 -6.18010408E-03  0.00000000E+00  0.00000000E+00  3.18586079E-03
  0.00000000E+00  0.00000000E+00  0.00000000E+00  0.00000000E+00  0.00000000E+00
  0.00000000E+00  0.00000000E+00  0.00000000E+00  0.00000000E+00  0.00000000E+00
  0.00000000E+00  0.00000000E+00 -1.32825638E-03  0.00000000E+00  0.00000000E+00
  3.80273284E-01  0.00000000E+00  0.00000000E+00  7.09168145E-01  0.00000000E+00
  0.00000000E+00  5.13634185E-02  0.00000000E+00  0.00000000E+00 -5.20193678E-03
  0.00000000E+00  0.00000000E+00  2.58484578E-03  0.00000000E+00  0.00000000E+00
  0.00000000E+00  0.00000000E+00  0.00000000E+00  0.00000000E+00  0.00000000E+00
  4.15265549E-02  1.19047947E-01 -2.62168329E-01 -4.47883737E-01  1.00856857E+00
  2.30689258E-01 -2.44972860E-02  0.00000000E+00  0.00000000E+00  0.00000000E+00
  0.00000000E+00  0.00000000E+00  0.00000000E+00  0.00000000E+00  0.00000000E+00
  0.00000000E+00  0.00000000E+00  0.00000000E+00  0.00000000E+00  0.00000000E+00
  0.00000000E+00  0.00000000E+00  0.00000000E+00  0.00000000E+00  0.00000000E+00
 -1.01934284E-02  0.00000000E+00  0.00000000E+00  1.76555359E-02  0.00000000E+00
  0.00000000E+00  0.00000000E+00  0.00000000E+00  0.00000000E+00  0.00000000E+00
  0.00000000E+00  0.00000000E+00  1.24059001E-02  0.00000000E+00  0.00000000E+00
 -1.34044538E-01  0.00000000E+00  0.00000000E+00 -2.61141514E-01  0.00000000E+00
  0.00000000E+00  4.77874840E-01  0.00000000E+00  0.00000000E+00  6.52013343E-01
  0.00000000E+00  0.00000000E+00 -2.05453987E-03  0.00000000E+00  0.00000000E+00
  0.00000000E+00  0.00000000E+00  0.00000000E+00  0.00000000E+00  0.00000000E+00
  0.00000000E+00  0.00000000E+00  0.00000000E+00  0.00000000E+00  0.00000000E+00
  0.00000000E+00  0.00000000E+00  0.00000000E+00  3.76001199E-03  0.00000000E+00
  0.00000000E+00 -1.31499655E-01  0.00000000E+00  0.00000000E+00 -2.55456189E-01
  0.00000000E+00  0.00000000E+00  4.54331532E-01  0.00000000E+00  0.00000000E+00
  6.61894159E-01  0.00000000E+00  0.00000000E+00  2.08336814E-02  0.00000000E+00
  0.00000000E+00  0.00000000E+00  0.00000000E+00  0.00000000E+00  0.00000000E+00
  0.00000000E+00  0.00000000E+00  0.00000000E+00  0.00000000E+00  0.00000000E+00
  0.00000000E+00  0.00000000E+00  0.00000000E+00  0.00000000E+00  3.76001199E-03
  0.00000000E+00  0.00000000E+00 -1.31499655E-01  0.00000000E+00  0.00000000E+00
 -2.55456189E-01  0.00000000E+00  0.00000000E+00  4.54331532E-01  0.00000000E+00
  0.00000000E+00  6.61894159E-01  0.00000000E+00  0.00000000E+00  2.08336814E-02
  0.00000000E+00  0.00000000E+00  0.00000000E+00  0.00000000E+00  0.00000000E+00
  2.09151822E-02  5.99532892E-02 -1.32576676E-01 -2.90017209E-01  1.21327069E+00
 -7.60045192E-01 -6.94872997E-01  0.00000000E+00  0.00000000E+00  0.00000000E+00
  0.00000000E+00  0.00000000E+00  0.00000000E+00  0.00000000E+00  0.00000000E+00
  0.00000000E+00  0.00000000E+00  0.00000000E+00  0.00000000E+00  0.00000000E+00
  0.00000000E+00  0.00000000E+00  0.00000000E+00  0.00000000E+00  0.00000000E+00
 -9.11200597E-03  0.00000000E+00  0.00000000E+00  1.57824573E-02  0.00000000E+00
  0.00000000E+00  0.00000000E+00  0.00000000E+00  0.00000000E+00  0.00000000E+00
  0.00000000E+00  0.00000000E+00  0.00000000E+00  0.00000000E+00  0.00000000E+00
  0.00000000E+00  0.00000000E+00  0.00000000E+00  0.00000000E+00  0.00000000E+00
  0.00000000E+00  0.00000000E+00  0.00000000E+00  0.00000000E+00  0.00000000E+00
  0.00000000E+00  0.00000000E+00  0.00000000E+00  0.00000000E+00  0.00000000E+00
  0.00000000E+00  0.00000000E+00  0.00000000E+00  0.00000000E+00  1.00000000E+00
  0.00000000E+00  0.00000000E+00  0.00000000E+00  0.00000000E+00  0.00000000E+00
  0.00000000E+00  0.00000000E+00  0.00000000E+00  0.00000000E+00  0.00000000E+00
  0.00000000E+00  0.00000000E+00  0.00000000E+00  0.00000000E+00  0.00000000E+00
  0.00000000E+00  0.00000000E+00  0.00000000E+00  0.00000000E+00  0.00000000E+00
  0.00000000E+00  0.00000000E+00  0.00000000E+00  0.00000000E+00  0.00000000E+00
  0.00000000E+00  1.00000000E+00  0.00000000E+00  0.00000000E+00  0.00000000E+00
 -1.32539958E-03 -3.99380519E-03  1.08031359E-02  9.86687533E-03 -3.64959510E-02
  1.56774229E-03  1.74136785E-02  0.00000000E+00  0.00000000E+00  0.00000000E+00
  0.00000000E+00  0.00000000E+00  0.00000000E+00  0.00000000E+00  0.00000000E+00
  0.00000000E+00  0.00000000E+00  0.00000000E+00  0.00000000E+00  0.00000000E+00
  0.00000000E+00  0.00000000E+00  0.00000000E+00  0.00000000E+00  0.00000000E+00
 -4.99811317E-01  0.00000000E+00  0.00000000E+00  8.65698595E-01  0.00000000E+00
  0.00000000E+00  0.00000000E+00  0.00000000E+00  0.00000000E+00  0.00000000E+00
  0.00000000E+00  0.00000000E+00  2.43610985E-02  0.00000000E+00  0.00000000E+00
  6.37452457E-02  0.00000000E+00  0.00000000E+00  1.28246065E-01  0.00000000E+00
  0.00000000E+00 -3.44920248E-01  0.00000000E+00  0.00000000E+00 -3.19758688E-01
  0.00000000E+00  0.00000000E+00  1.10884670E+00  0.00000000E+00  0.00000000E+00
  0.00000000E+00  0.00000000E+00  0.00000000E+00  0.00000000E+00  0.00000000E+00
 -2.29646325E-16 -7.14419490E-16  2.04603536E-15  1.63041294E-15 -9.84215865E-15
  1.00491049E-14 -2.70670590E-15  0.00000000E+00  0.00000000E+00  0.00000000E+00
  0.00000000E+00  0.00000000E+00  0.00000000E+00  0.00000000E+00  0.00000000E+00
  0.00000000E+00  0.00000000E+00  0.00000000E+00  0.00000000E+00  0.00000000E+00
  0.00000000E+00  0.00000000E+00  0.00000000E+00  0.00000000E+00  0.00000000E+00
  8.66025404E-01  0.00000000E+00  0.00000000E+00  5.00000000E-01  0.00000000E+00
  0.00000000E+00  0.00000000E+00  0.00000000E+00  0.00000000E+00  0.00000000E+00
  0.00000000E+00  0.00000000E+00  0.00000000E+00  0.00000000E+00  0.00000000E+00
  0.00000000E+00  0.00000000E+00  0.00000000E+00  0.00000000E+00  0.00000000E+00
  0.00000000E+00  0.00000000E+00  0.00000000E+00  0.00000000E+00  0.00000000E+00
  0.00000000E+00  0.00000000E+00  0.00000000E+00  0.00000000E+00  0.00000000E+00
  0.00000000E+00  0.00000000E+00  1.00000000E+00  0.00000000E+00  0.00000000E+00
  0.00000000E+00  0.00000000E+00  0.00000000E+00  0.00000000E+00  0.00000000E+00
  0.00000000E+00  0.00000000E+00  0.00000000E+00  0.00000000E+00  4.04365508E-02
  0.00000000E+00  0.00000000E+00  6.52903889E-02  0.00000000E+00  0.00000000E+00
  1.31087179E-01  0.00000000E+00  0.00000000E+00 -3.43617389E-01  0.00000000E+00
  0.00000000E+00 -3.39563099E-01  0.00000000E+00  0.00000000E+00  1.09664232E+00
  0.00000000E+00  0.00000000E+00  0.00000000E+00  0.00000000E+00  0.00000000E+00
  0.00000000E+00  0.00000000E+00  0.00000000E+00  0.00000000E+00  0.00000000E+00
  0.00000000E+00  0.00000000E+00  0.00000000E+00  4.04365508E-02  0.00000000E+00
  0.00000000E+00  6.52903889E-02  0.00000000E+00  0.00000000E+00  1.31087179E-01
  0.00000000E+00  0.00000000E+00 -3.43617389E-01  0.00000000E+00  0.00000000E+00
 -3.39563099E-01  0.00000000E+00  0.00000000E+00  1.09664232E+00  0.00000000E+00
  0.00000000E+00  0.00000000E+00  0.00000000E+00  0.00000000E+00  0.00000000E+00
  0.00000000E+00  0.00000000E+00  0.00000000E+00  0.00000000E+00  0.00000000E+00
  0.00000000E+00  0.00000000E+00  2.26606084E+00  0.00000000E+00  0.00000000E+00
 -4.47011952E-02  0.00000000E+00  0.00000000E+00 -8.94393346E-02  0.00000000E+00
  0.00000000E+00  2.59054394E-01  0.00000000E+00  0.00000000E+00  2.73018339E-01
  0.00000000E+00  0.00000000E+00 -2.21916629E+00  0.00000000E+00  0.00000000E+00
  0.00000000E+00  0.00000000E+00  0.00000000E+00  0.00000000E+00  0.00000000E+00
  0.00000000E+00  0.00000000E+00  0.00000000E+00  0.00000000E+00  0.00000000E+00
  0.00000000E+00  0.00000000E+00  0.00000000E+00  0.00000000E+00  2.27015982E+00
  0.00000000E+00  0.00000000E+00 -4.58649095E-02  0.00000000E+00  0.00000000E+00
 -9.16080308E-02  0.00000000E+00  0.00000000E+00  2.59318379E-01  0.00000000E+00
  0.00000000E+00  2.90046233E-01  0.00000000E+00  0.00000000E+00 -2.23707135E+00
  0.00000000E+00  0.00000000E+00  0.00000000E+00  0.00000000E+00  0.00000000E+00
  0.00000000E+00  0.00000000E+00  0.00000000E+00  0.00000000E+00  0.00000000E+00
  0.00000000E+00  0.00000000E+00  0.00000000E+00  2.27015982E+00  0.00000000E+00
  0.00000000E+00 -4.58649095E-02  0.00000000E+00  0.00000000E+00 -9.16080308E-02
  0.00000000E+00  0.00000000E+00  2.59318379E-01  0.00000000E+00  0.00000000E+00
  2.90046233E-01  0.00000000E+00  0.00000000E+00 -2.23707135E+00  0.00000000E+00
  0.00000000E+00  0.00000000E+00  0.00000000E+00  0.00000000E+00  0.00000000E+00
 -2.15387736E-02 -6.12137158E-02  1.30635884E-01  3.42810506E-01 -1.80759148E+00
  2.78926348E+00 -1.70004075E+00  0.00000000E+00  0.00000000E+00  0.00000000E+00
  0.00000000E+00  0.00000000E+00  0.00000000E+00  0.00000000E+00  0.00000000E+00
  0.00000000E+00  0.00000000E+00  0.00000000E+00  0.00000000E+00  0.00000000E+00
  0.00000000E+00  0.00000000E+00  0.00000000E+00  0.00000000E+00  0.00000000E+00
 -1.13061608E-03  0.00000000E+00  0.00000000E+00  1.95828449E-03  0.00000000E+00
  0.00000000E+00  0.00000000E+00  0.00000000E+00  0.00000000E+00  0.00000000E+00
  0.00000000E+00  0.00000000E+00  1.09080069E+00  0.00000000E+00  0.00000000E+00
  1.55934792E-01  0.00000000E+00  0.00000000E+00  3.61383292E-01  0.00000000E+00
  0.00000000E+00 -1.69929758E+00  0.00000000E+00  0.00000000E+00  2.14418697E+00
  0.00000000E+00  0.00000000E+00 -1.92732842E+00  0.00000000E+00  0.00000000E+00
  0.00000000E+00  0.00000000E+00  0.00000000E+00  0.00000000E+00  0.00000000E+00
  0.00000000E+00  0.00000000E+00  0.00000000E+00  0.00000000E+00  0.00000000E+00
  0.00000000E+00  0.00000000E+00  0.00000000E+00  0.00000000E+00  1.08183182E+00
  0.00000000E+00  0.00000000E+00  1.57909752E-01  0.00000000E+00  0.00000000E+00
  3.65543498E-01  0.00000000E+00  0.00000000E+00 -1.70596710E+00  0.00000000E+00
  0.00000000E+00  2.13590780E+00  0.00000000E+00  0.00000000E+00 -1.91346013E+00
  0.00000000E+00  0.00000000E+00  0.00000000E+00  0.00000000E+00  0.00000000E+00
  0.00000000E+00  0.00000000E+00  0.00000000E+00  0.00000000E+00  0.00000000E+00
  0.00000000E+00  0.00000000E+00  0.00000000E+00  1.08183182E+00  0.00000000E+00
  0.00000000E+00  1.57909752E-01  0.00000000E+00  0.00000000E+00  3.65543498E-01
  0.00000000E+00  0.00000000E+00 -1.70596710E+00  0.00000000E+00  0.00000000E+00
  2.13590780E+00  0.00000000E+00  0.00000000E+00 -1.91346013E+00  0.00000000E+00
  0.00000000E+00  0.00000000E+00  0.00000000E+00  0.00000000E+00  0.00000000E+00
  1.14100057E-01  4.51123306E-01 -2.50895502E+00  2.88325297E+00 -1.59330347E+00
  9.65567411E-01 -3.03341422E-01  0.00000000E+00  0.00000000E+00  0.00000000E+00
  0.00000000E+00  0.00000000E+00  0.00000000E+00  0.00000000E+00  0.00000000E+00
  0.00000000E+00  0.00000000E+00  0.00000000E+00  0.00000000E+00  0.00000000E+00
  0.00000000E+00  0.00000000E+00  0.00000000E+00  0.00000000E+00  0.00000000E+00
 -6.58799962E-04  0.00000000E+00  0.00000000E+00  1.14107501E-03  0.00000000E+00
  0.00000000E+00  0.00000000E+00  0.00000000E+00  0.00000000E+00  0.00000000E+00
  0.00000000E+00  0.00000000E+00  0.00000000E+00  0.00000000E+00  1.89280018E-01
  0.00000000E+00  0.00000000E+00 -1.21095284E+00  0.00000000E+00  0.00000000E+00
  1.37548972E+00  0.00000000E+00  0.00000000E+00 -9.46623329E-01  0.00000000E+00
  0.00000000E+00  5.75404142E-01  0.00000000E+00  0.00000000E+00 -3.56495405E-01
  0.00000000E+00  0.00000000E+00  0.00000000E+00  0.00000000E+00  0.00000000E+00
  0.00000000E+00  0.00000000E+00  0.00000000E+00  0.00000000E+00  0.00000000E+00
  0.00000000E+00  0.00000000E+00  0.00000000E+00  1.89280018E-01  0.00000000E+00
  0.00000000E+00 -1.21095284E+00  0.00000000E+00  0.00000000E+00  1.37548972E+00
  0.00000000E+00  0.00000000E+00 -9.46623329E-01  0.00000000E+00  0.00000000E+00
  5.75404142E-01  0.00000000E+00  0.00000000E+00 -3.56495405E-01  0.00000000E+00
  0.00000000E+00  0.00000000E+00  0.00000000E+00  0.00000000E+00  0.00000000E+00
  0.00000000E+00  0.00000000E+00  0.00000000E+00  0.00000000E+00  0.00000000E+00
  0.00000000E+00  0.00000000E+00  1.89308204E-01  0.00000000E+00  0.00000000E+00
 -1.21051138E+00  0.00000000E+00  0.00000000E+00  1.37632163E+00  0.00000000E+00
  0.00000000E+00 -9.46719659E-01  0.00000000E+00  0.00000000E+00  5.75580738E-01
  0.00000000E+00  0.00000000E+00 -3.56552493E-01  0.00000000E+00  0.00000000E+00
  0.00000000E+00  0.00000000E+00  0.00000000E+00  0.00000000E+00  0.00000000E+00
 -1.53758950E+00  1.87593841E+00 -1.34073526E+00  8.64792070E-01 -3.31638240E-01
  1.90952449E-01 -5.94003591E-02  0.00000000E+00  0.00000000E+00  0.00000000E+00
  0.00000000E+00  0.00000000E+00  0.00000000E+00  0.00000000E+00  0.00000000E+00
  0.00000000E+00  0.00000000E+00  0.00000000E+00  0.00000000E+00  0.00000000E+00
  0.00000000E+00  0.00000000E+00  0.00000000E+00  0.00000000E+00  0.00000000E+00
 -2.12413787E-06  0.00000000E+00  0.00000000E+00  3.67911471E-06  0.00000000E+00
Beta MO coefficients                       R   N=         900
  4.11123109E-01  6.54309284E-01  1.47846030E-02 -4.01439132E-03  1.33062063E-03
 -7.52658649E-04  2.33086618E-04  0.00000000E+00  0.00000000E+00  0.00000000E+00
  0.00000000E+00  0.00000000E+00  0.00000000E+00  0.00000000E+00  0.00000000E+00
  0.00000000E+00  0.00000000E+00  0.00000000E+00  0.00000000E+00  0.00000000E+00
  0.00000000E+00  0.00000000E+00  0.00000000E+00  0.00000000E+00  0.00000000E+00
  5.17169164E-07  0.00000000E+00  0.00000000E+00 -8.95763267E-07  0.00000000E+00
 -1.19956812E-01 -3.21852326E-01  5.23427645E-01  5.92455538E-01  4.33613827E-02
 -1.55685649E-02  4.32461902E-03  0.00000000E+00  0.00000000E+00  0.00000000E+00
  0.00000000E+00  0.00000000E+00  0.00000000E+00  0.00000000E+00  0.00000000E+00
  0.00000000E+00  0.00000000E+00  0.00000000E+00  0.00000000E+00  0.00000000E+00
  0.00000000E+00  0.00000000E+00  0.00000000E+00  0.00000000E+00  0.00000000E+00
  5.53617519E-04  0.00000000E+00  0.00000000E+00 -9.58893670E-04  0.00000000E+00
  0.00000000E+00  0.00000000E+00  0.00000000E+00  0.00000000E+00  0.00000000E+00
  0.00000000E+00  0.00000000E+00  0.00000000E+00  0.00000000E+00 -1.70861080E-03
  0.00000000E+00  0.00000000E+00  3.78336053E-01  0.00000000E+00  0.00000000E+00
  7.10165793E-01  0.00000000E+00  0.00000000E+00  5.29885769E-02  0.00000000E+00
  0.00000000E+00 -6.36882501E-03  0.00000000E+00  0.00000000E+00  3.29664616E-03
  0.00000000E+00  0.00000000E+00  0.00000000E+00  0.00000000E+00  0.00000000E+00
  0.00000000E+00  0.00000000E+00  0.00000000E+00  0.00000000E+00  0.00000000E+00
  0.00000000E+00  0.00000000E+00  0.00000000E+00 -1.70861080E-03  0.00000000E+00
  0.00000000E+00  3.78336053E-01  0.00000000E+00  0.00000000E+00  7.10165793E-01
  0.00000000E+00  0.00000000E+00  5.29885769E-02  0.00000000E+00  0.00000000E+00
 -6.36882501E-03  0.00000000E+00  0.00000000E+00  3.29664616E-03  0.00000000E+00
  0.00000000E+00  0.00000000E+00  0.00000000E+00  0.00000000E+00  0.00000000E+00
  0.00000000E+00  0.00000000E+00  0.00000000E+00  0.00000000E+00  0.00000000E+00
  0.00000000E+00  0.00000000E+00 -1.52885594E-03  0.00000000E+00  0.00000000E+00
  3.78828010E-01  0.00000000E+00  0.00000000E+00  7.10691611E-01  0.00000000E+00
  0.00000000E+00  5.09258632E-02  0.00000000E+00  0.00000000E+00 -5.79461971E-03
  0.00000000E+00  0.00000000E+00  2.95696562E-03  0.00000000E+00  0.00000000E+00
  0.00000000E+00  0.00000000E+00  0.00000000E+00  0.00000000E+00  0.00000000E+00
  4.15114083E-02  1.19359539E-01 -2.65967474E-01 -4.39985573E-01  9.97958107E-01
  2.38724757E-01 -2.43461522E-02  0.00000000E+00  0.00000000E+00  0.00000000E+00
  0.00000000E+00  0.00000000E+00  0.00000000E+00  0.00000000E+00  0.00000000E+00
  0.00000000E+00  0.00000000E+00  0.00000000E+00  0.00000000E+00  0.00000000E+00
  0.00000000E+00  0.00000000E+00  0.00000000E+00  0.00000000E+00  0.00000000E+00
  1.97500146E-02  0.00000000E+00  0.00000000E+00 -3.42080287E-02  0.00000000E+00
  0.00000000E+00  0.00000000E+00  0.00000000E+00  0.00000000E+00  0.00000000E+00
  0.00000000E+00  0.00000000E+00  0.00000000E+00  1.53555554E-03  0.00000000E+00
  0.00000000E+00 -1.31707110E-01  0.00000000E+00  0.00000000E+00 -2.55213122E-01
  0.00000000E+00  0.00000000E+00  4.55357669E-01  0.00000000E+00  0.00000000E+00
  6.58655130E-01  0.00000000E+00  0.00000000E+00  2.62913107E-02  0.00000000E+00
  0.00000000E+00  0.00000000E+00  0.00000000E+00  0.00000000E+00  0.00000000E+00
  0.00000000E+00  0.00000000E+00  0.00000000E+00  0.00000000E+00  0.00000000E+00
  0.00000000E+00  0.00000000E+00  0.00000000E+00  0.00000000E+00  1.53555554E-03
  0.00000000E+00  0.00000000E+00 -1.31707110E-01  0.00000000E+00  0.00000000E+00
 -2.55213122E-01  0.00000000E+00  0.00000000E+00  4.55357669E-01  0.00000000E+00
  0.00000000E+00  6.58655130E-01  0.00000000E+00  0.00000000E+00  2.62913107E-02
  0.00000000E+00  0.00000000E+00  0.00000000E+00  0.00000000E+00  0.00000000E+00