fubar                                                                   
SP        UPBE1PBE                                                    6-311+G(d,p)        
Number of atoms                            I                1
Info1-9                                    I   N=           9
          11          10           0           0           0         110
           1          18       -1302
Full Title                                 C   N=           1
fubar       
Route                                      C   N=           3
#PBE1PBE/6-311+G(d,p) scf=tight     
Charge                                     I                3
Multiplicity                               I                3
Number of electrons                        I                6
Number of alpha electrons                  I                4
Number of beta electrons                   I                2
Number of basis functions                  I               22
Number of independent functions            I               22
Number of point charges in /Mol/           I                0
Number of translation vectors              I                0
Atomic numbers                             I   N=           1
           9
Nuclear charges                            R   N=           1
  9.00000000E+00
Current cartesian coordinates              R   N=           3
  0.00000000E+00  0.00000000E+00  0.00000000E+00
Number of symbols in /Mol/                 I                0
Int Atom Types                             I   N=           1
           0
Force Field                                I                0
Atom Types                                 C   N=           1
            
MM charges                                 R   N=           1
  0.00000000E+00
Integer atomic weights                     I   N=           1
          19
Real atomic weights                        R   N=           1
  1.89984032E+01
Atom fragment info                         I   N=           1
           0
Atom residue num                           I   N=           1
           0
Nuclear spins                              I   N=           1
           1
Nuclear ZEff                               R   N=           1
 -6.75000000E+00
Nuclear ZNuc                               R   N=           1
  9.00000000E+00
Nuclear QMom                               R   N=           1
  0.00000000E+00
Nuclear GFac                               R   N=           1
  2.62886700E+00
MicOpt                                     I   N=           1
          -1
Number of residues                         I                0
Number of secondary structures             I                0
SymInf integers                            I   N=          26
           1           8           1           1           1           1
          -1          -1          -1           1          -1          -1
          -1           1          -1          -1          -1          -1
           1           1           1          -1           1           1
           1          -1
RotTr to input orientation                 R   N=          12
  0.00000000E+00  0.00000000E+00 -1.00000000E+00  0.00000000E+00  1.00000000E+00
  0.00000000E+00  1.00000000E+00  0.00000000E+00  0.00000000E+00  0.00000000E+00
  0.00000000E+00  0.00000000E+00
Number of contracted shells                I                6
Number of primitive shells                 I               13
Pure/Cartesian d shells                    I                0
Pure/Cartesian f shells                    I                0
Highest angular momentum                   I                2
Largest degree of contraction              I                6
Shell types                                I   N=           6
           0          -1          -1          -1          -1          -2
Number of primitives per shell             I   N=           6
           6           3           1           1           1           1
Shell to atom map                          I   N=           6
           1           1           1           1           1           1
Primitive exponents                        R   N=          13
  1.14271000E+04  1.72235000E+03  3.95746000E+02  1.15139000E+02  3.36026000E+01
  4.91901000E+00  5.54441000E+01  1.26323000E+01  3.71756000E+00  1.16545000E+00
  3.21892000E-01  1.07600000E-01  1.75000000E+00
Contraction coefficients                   R   N=          13
  1.80093016E-03  1.37419012E-02  6.81334059E-02  2.33325020E-01  5.89086051E-01
  2.99505026E-01  1.14536016E-01  9.20512125E-01 -3.37804046E-03  1.00000000E+00
  1.00000000E+00  1.00000000E+00  1.00000000E+00
P(S=P) Contraction coefficients            R   N=          13
  0.00000000E+00  0.00000000E+00  0.00000000E+00  0.00000000E+00  0.00000000E+00
  0.00000000E+00  3.54608874E-02  2.37450915E-01  8.20457708E-01  1.00000000E+00
  1.00000000E+00  1.00000000E+00  0.00000000E+00
Coordinates of each shell                  R   N=          18
  0.00000000E+00  0.00000000E+00  0.00000000E+00  0.00000000E+00  0.00000000E+00
  0.00000000E+00  0.00000000E+00  0.00000000E+00  0.00000000E+00  0.00000000E+00
  0.00000000E+00  0.00000000E+00  0.00000000E+00  0.00000000E+00  0.00000000E+00
  0.00000000E+00  0.00000000E+00  0.00000000E+00
Num ILSW                                   I              100
ILSW                                       I   N=         100
           1           0           0           0           2           0
           0           0           0           0        1009          -1
           5           0           0           0           0           0
           0           0           0           0           0           0
           1           0           0           0           0           0
           0           0      100000           0          -1           0
           0           0           0           0           0           0
           0           0           0           1           0           0
           0 -2000000000           1           0           0           0
           0           1           4          52           0           0
           0           0          13           0           0           0
           0           0           0           1           0           1
           0           0           0           0           0           0
           0           0           0           0           0           0
           0           0           0           0           0           0
           0           0           0           0           0           0
           0           0           0           0
Num RLSW                                   I               52
RLSW                                       R   N=          52
  7.50000000E-01  7.50000000E-01  1.00000000E+00  1.00000000E+00  2.50000000E-01
  0.00000000E+00  0.00000000E+00  1.00000000E+00  0.00000000E+00  0.00000000E+00
  0.00000000E+00  0.00000000E+00  1.00000000E+00  0.00000000E+00  0.00000000E+00
  0.00000000E+00  0.00000000E+00  1.00000000E+00  0.00000000E+00  0.00000000E+00
  0.00000000E+00  0.00000000E+00  1.00000000E+00  0.00000000E+00  0.00000000E+00
  0.00000000E+00  0.00000000E+00  1.00000000E+00  0.00000000E+00  0.00000000E+00
  0.00000000E+00  0.00000000E+00  1.00000000E+00  0.00000000E+00  0.00000000E+00
  0.00000000E+00  0.00000000E+00  0.00000000E+00  1.00000000E+00  1.00000000E+00
  0.00000000E+00  1.00000000E+00  0.00000000E+00  0.00000000E+00  0.00000000E+00
  0.00000000E+00  0.00000000E+00  0.00000000E+00  0.00000000E+00  0.00000000E+00
  0.00000000E+00  0.00000000E+00
MxBond                                     I                1
NBond                                      I   N=           1
           0
IBond                                      I   N=           1
           0
RBond                                      R   N=           1
  0.00000000E+00
Virial Ratio                               R      2.001957517909797E+00
SCF Energy                                 R     -9.541725475691825E+01
Total Energy                               R     -9.541725475691825E+01
S**2                                       R      2.001299789027849E+00
S**2 after annihilation                    R      2.000000001031661E+00
RMS Density                                R      2.779075962568046E-09
Job Status                                 I                1
Nuclear derivative order                   I                0
External E-field                           R   N=          35
  0.00000000E+00  0.00000000E+00  0.00000000E+00  0.00000000E+00  0.00000000E+00
  0.00000000E+00  0.00000000E+00  0.00000000E+00  0.00000000E+00  0.00000000E+00
  0.00000000E+00  0.00000000E+00  0.00000000E+00  0.00000000E+00  0.00000000E+00
  0.00000000E+00  0.00000000E+00  0.00000000E+00  0.00000000E+00  0.00000000E+00
  0.00000000E+00  0.00000000E+00  0.00000000E+00  0.00000000E+00  0.00000000E+00
  0.00000000E+00  0.00000000E+00  0.00000000E+00  0.00000000E+00  0.00000000E+00
  0.00000000E+00  0.00000000E+00  0.00000000E+00  0.00000000E+00  0.00000000E+00
IOpCl                                      I                1
IROHF                                      I                0
Alpha Orbital Energies                     R   N=          22
 -2.77632444E+01 -3.56155058E+00 -2.88485037E+00 -2.88485037E+00 -2.60608162E+00
 -9.43757792E-01 -7.90965695E-01 -7.90965695E-01 -7.82510950E-01 -1.64097360E-01
 -1.64097360E-01 -1.56051786E-01 -4.01781443E-02  1.43102151E+00  1.43102151E+00
  1.44335680E+00  1.44335680E+00  1.46677917E+00  3.85113642E+00  3.85113642E+00
  3.89636880E+00  6.38611723E+01
Beta Orbital Energies                      R   N=          22
 -2.76699982E+01 -3.31452646E+00 -2.51297221E+00 -2.38632141E+00 -2.38632141E+00
 -9.05232547E-01 -7.64119849E-01 -7.41260577E-01 -7.41260577E-01 -1.36268055E-01
 -1.04922927E-01 -1.04922927E-01  2.09087040E-02  1.56964780E+00  1.59898168E+00
  1.59898168E+00  1.68340980E+00  1.68340980E+00  3.95668847E+00  4.05496009E+00
  4.05496009E+00  6.39380444E+01
Alpha MO coefficients                      R   N=         484
  5.47570521E-01  4.72702754E-01  0.00000000E+00  0.00000000E+00  0.00000000E+00
  9.66254007E-03  0.00000000E+00  0.00000000E+00  0.00000000E+00 -4.11141702E-03
  0.00000000E+00  0.00000000E+00  0.00000000E+00  1.52180418E-03  0.00000000E+00
  0.00000000E+00  0.00000000E+00  2.40926946E-04  0.00000000E+00  0.00000000E+00
  4.17297712E-04  0.00000000E+00 -1.49819399E-01 -2.46199963E-01  0.00000000E+00
  0.00000000E+00  0.00000000E+00  8.81566988E-01  0.00000000E+00  0.00000000E+00
  0.00000000E+00  2.57757401E-01  0.00000000E+00  0.00000000E+00  0.00000000E+00
 -3.12456525E-02  0.00000000E+00  0.00000000E+00  0.00000000E+00  3.63605036E-03
  0.00000000E+00  0.00000000E+00  6.29782396E-03  0.00000000E+00  0.00000000E+00
  0.00000000E+00  0.00000000E+00  0.00000000E+00  4.42138591E-01  0.00000000E+00
  0.00000000E+00  0.00000000E+00  5.85521382E-01  0.00000000E+00  0.00000000E+00
  0.00000000E+00  1.51272333E-01  0.00000000E+00  0.00000000E+00  0.00000000E+00
 -1.94725343E-02  0.00000000E+00  0.00000000E+00  0.00000000E+00  0.00000000E+00
  0.00000000E+00  0.00000000E+00  0.00000000E+00  4.42138591E-01  0.00000000E+00
  0.00000000E+00  0.00000000E+00  5.85521382E-01  0.00000000E+00  0.00000000E+00
  0.00000000E+00  1.51272333E-01  0.00000000E+00  0.00000000E+00  0.00000000E+00
 -1.94725343E-02  0.00000000E+00  0.00000000E+00  0.00000000E+00  0.00000000E+00
  0.00000000E+00  0.00000000E+00  0.00000000E+00  0.00000000E+00  0.00000000E+00
  0.00000000E+00  4.22344270E-01  0.00000000E+00  0.00000000E+00  0.00000000E+00
  5.85216105E-01  0.00000000E+00  0.00000000E+00  0.00000000E+00  1.80458871E-01
  0.00000000E+00  0.00000000E+00  0.00000000E+00 -2.28188738E-02  0.00000000E+00
  0.00000000E+00  0.00000000E+00  0.00000000E+00  0.00000000E+00  0.00000000E+00
  5.99639999E-02  1.08611726E-01  0.00000000E+00  0.00000000E+00  0.00000000E+00
 -6.58511808E-01  0.00000000E+00  0.00000000E+00  0.00000000E+00  6.85647982E-02
  0.00000000E+00  0.00000000E+00  0.00000000E+00  1.05724502E+00  0.00000000E+00
  0.00000000E+00  0.00000000E+00 -1.34484585E-03  0.00000000E+00  0.00000000E+00
 -2.32934135E-03  0.00000000E+00  0.00000000E+00  0.00000000E+00 -1.90291904E-01
  0.00000000E+00  0.00000000E+00  0.00000000E+00 -2.88050730E-01  0.00000000E+00
  0.00000000E+00  0.00000000E+00  4.42117805E-01  0.00000000E+00  0.00000000E+00
  0.00000000E+00  6.96038386E-01  0.00000000E+00  0.00000000E+00  0.00000000E+00
  0.00000000E+00  0.00000000E+00  0.00000000E+00  0.00000000E+00  0.00000000E+00
  0.00000000E+00  0.00000000E+00  0.00000000E+00 -1.90291904E-01  0.00000000E+00
  0.00000000E+00  0.00000000E+00 -2.88050730E-01  0.00000000E+00  0.00000000E+00
  0.00000000E+00  4.42117805E-01  0.00000000E+00  0.00000000E+00  0.00000000E+00
  6.96038386E-01  0.00000000E+00  0.00000000E+00  0.00000000E+00  0.00000000E+00
  0.00000000E+00  0.00000000E+00  0.00000000E+00  0.00000000E+00 -1.90807259E-01
  0.00000000E+00  0.00000000E+00  0.00000000E+00 -2.99815852E-01  0.00000000E+00
  0.00000000E+00  0.00000000E+00  4.14983225E-01  0.00000000E+00  0.00000000E+00
  0.00000000E+00  7.16748274E-01  0.00000000E+00  0.00000000E+00  0.00000000E+00
  0.00000000E+00  0.00000000E+00  0.00000000E+00  0.00000000E+00  0.00000000E+00
 -2.31801144E-01  0.00000000E+00  0.00000000E+00  0.00000000E+00 -4.56495800E-01
  0.00000000E+00  0.00000000E+00  0.00000000E+00  1.61113936E+00  0.00000000E+00
  0.00000000E+00  0.00000000E+00 -1.28769965E+00  0.00000000E+00  0.00000000E+00
  0.00000000E+00  0.00000000E+00  0.00000000E+00  0.00000000E+00  0.00000000E+00
  0.00000000E+00  0.00000000E+00  0.00000000E+00  0.00000000E+00 -2.31801144E-01
  0.00000000E+00  0.00000000E+00  0.00000000E+00 -4.56495800E-01  0.00000000E+00
  0.00000000E+00  0.00000000E+00  1.61113936E+00  0.00000000E+00  0.00000000E+00
  0.00000000E+00 -1.28769965E+00  0.00000000E+00  0.00000000E+00  0.00000000E+00
  0.00000000E+00  0.00000000E+00  0.00000000E+00  0.00000000E+00  0.00000000E+00
 -2.35514228E-01  0.00000000E+00  0.00000000E+00  0.00000000E+00 -4.81127753E-01
  0.00000000E+00  0.00000000E+00  0.00000000E+00  1.62125153E+00  0.00000000E+00
  0.00000000E+00  0.00000000E+00 -1.27754870E+00  0.00000000E+00  0.00000000E+00
  0.00000000E+00  0.00000000E+00  0.00000000E+00  0.00000000E+00  9.28542370E-02
  1.81418224E-01  0.00000000E+00  0.00000000E+00  0.00000000E+00 -1.52638912E+00
  0.00000000E+00  0.00000000E+00  0.00000000E+00  2.69036323E+00  0.00000000E+00
  0.00000000E+00  0.00000000E+00 -1.62847902E+00  0.00000000E+00  0.00000000E+00
  0.00000000E+00 -2.88067677E-03  0.00000000E+00  0.00000000E+00 -4.98947852E-03
  0.00000000E+00  0.00000000E+00  0.00000000E+00  0.00000000E+00  0.00000000E+00
  0.00000000E+00  0.00000000E+00  0.00000000E+00  0.00000000E+00  0.00000000E+00
  0.00000000E+00  0.00000000E+00  0.00000000E+00  0.00000000E+00  0.00000000E+00
  0.00000000E+00  0.00000000E+00  0.00000000E+00  0.00000000E+00  1.00000000E+00
  0.00000000E+00  0.00000000E+00  0.00000000E+00  1.42922781E-16  2.77570109E-16
  0.00000000E+00  0.00000000E+00  0.00000000E+00 -1.71994017E-15  0.00000000E+00
  0.00000000E+00  0.00000000E+00  2.17725433E-15  0.00000000E+00  0.00000000E+00
  0.00000000E+00 -1.14871733E-15  0.00000000E+00  0.00000000E+00  0.00000000E+00
  8.66025404E-01  0.00000000E+00  0.00000000E+00 -5.00000000E-01  0.00000000E+00
  0.00000000E+00  0.00000000E+00  0.00000000E+00  0.00000000E+00  0.00000000E+00
  0.00000000E+00  0.00000000E+00  0.00000000E+00  0.00000000E+00  0.00000000E+00
  0.00000000E+00  0.00000000E+00  0.00000000E+00  0.00000000E+00  0.00000000E+00
  0.00000000E+00  0.00000000E+00  0.00000000E+00  0.00000000E+00  0.00000000E+00
  0.00000000E+00  1.00000000E+00  0.00000000E+00  0.00000000E+00  0.00000000E+00
  0.00000000E+00  0.00000000E+00  0.00000000E+00  0.00000000E+00  0.00000000E+00
  0.00000000E+00  0.00000000E+00  0.00000000E+00  0.00000000E+00  0.00000000E+00
  0.00000000E+00  0.00000000E+00  0.00000000E+00  0.00000000E+00  0.00000000E+00
  0.00000000E+00  1.00000000E+00  0.00000000E+00  0.00000000E+00  1.42739393E-03
  2.99743361E-03  0.00000000E+00  0.00000000E+00  0.00000000E+00 -1.69896681E-02
  0.00000000E+00  0.00000000E+00  0.00000000E+00  1.38208203E-02  0.00000000E+00
  0.00000000E+00  0.00000000E+00 -6.31571174E-03  0.00000000E+00  0.00000000E+00
  0.00000000E+00  4.99976613E-01  0.00000000E+00  0.00000000E+00  8.65984897E-01
  0.00000000E+00  0.00000000E+00  0.00000000E+00 -1.22043881E+00  0.00000000E+00
  0.00000000E+00  0.00000000E+00  1.57372437E+00  0.00000000E+00  0.00000000E+00
  0.00000000E+00 -9.81250984E-01  0.00000000E+00  0.00000000E+00  0.00000000E+00
  3.87380297E-01  0.00000000E+00  0.00000000E+00  0.00000000E+00  0.00000000E+00
  0.00000000E+00  0.00000000E+00  0.00000000E+00  0.00000000E+00  0.00000000E+00
  0.00000000E+00  0.00000000E+00 -1.22043881E+00  0.00000000E+00  0.00000000E+00
  0.00000000E+00  1.57372437E+00  0.00000000E+00  0.00000000E+00  0.00000000E+00
 -9.81250984E-01  0.00000000E+00  0.00000000E+00  0.00000000E+00  3.87380297E-01
  0.00000000E+00  0.00000000E+00  0.00000000E+00  0.00000000E+00  0.00000000E+00
  0.00000000E+00  0.00000000E+00  0.00000000E+00 -1.22664223E+00  0.00000000E+00
  0.00000000E+00  0.00000000E+00  1.56427426E+00  0.00000000E+00  0.00000000E+00
  0.00000000E+00 -9.71463846E-01  0.00000000E+00  0.00000000E+00  0.00000000E+00
  3.83018305E-01  0.00000000E+00  0.00000000E+00  0.00000000E+00  0.00000000E+00
  0.00000000E+00  0.00000000E+00 -2.32552745E+00  2.39322533E+00  0.00000000E+00
  0.00000000E+00  0.00000000E+00 -1.99477162E-01  0.00000000E+00  0.00000000E+00
  0.00000000E+00  1.98646487E-01  0.00000000E+00  0.00000000E+00  0.00000000E+00
 -8.17434264E-02  0.00000000E+00  0.00000000E+00  0.00000000E+00 -2.03343901E-05
  0.00000000E+00  0.00000000E+00 -3.52201969E-05  0.00000000E+00
Beta MO coefficients                       R   N=         484
  5.49481135E-01  4.72048614E-01  0.00000000E+00  0.00000000E+00  0.00000000E+00
  5.82101523E-03  0.00000000E+00  0.00000000E+00  0.00000000E+00 -2.21642036E-03
  0.00000000E+00  0.00000000E+00  0.00000000E+00  7.96562192E-04  0.00000000E+00
  0.00000000E+00  0.00000000E+00 -2.01657466E-04  0.00000000E+00  0.00000000E+00
 -3.49280977E-04  0.00000000E+00 -1.46552264E-01 -2.39307846E-01  0.00000000E+00
  0.00000000E+00  0.00000000E+00  8.44110144E-01  0.00000000E+00  0.00000000E+00
  0.00000000E+00  3.02214866E-01  0.00000000E+00  0.00000000E+00  0.00000000E+00
 -3.73701663E-02  0.00000000E+00  0.00000000E+00  0.00000000E+00 -9.39918384E-03
  0.00000000E+00  0.00000000E+00 -1.62798640E-02  0.00000000E+00  0.00000000E+00
  0.00000000E+00  0.00000000E+00  4.17730305E-01  0.00000000E+00  0.00000000E+00
  0.00000000E+00  5.80080264E-01  0.00000000E+00  0.00000000E+00  0.00000000E+00
  1.95329739E-01  0.00000000E+00  0.00000000E+00  0.00000000E+00 -2.46051883E-02
  0.00000000E+00  0.00000000E+00  0.00000000E+00  0.00000000E+00  0.00000000E+00
  0.00000000E+00  0.00000000E+00  0.00000000E+00  0.00000000E+00  0.00000000E+00
  4.10961608E-01  0.00000000E+00  0.00000000E+00  0.00000000E+00  5.71758067E-01
  0.00000000E+00  0.00000000E+00  0.00000000E+00  2.17693424E-01  0.00000000E+00
  0.00000000E+00  0.00000000E+00 -2.67459567E-02  0.00000000E+00  0.00000000E+00
  0.00000000E+00  0.00000000E+00  0.00000000E+00  0.00000000E+00  0.00000000E+00
  4.10961608E-01  0.00000000E+00  0.00000000E+00  0.00000000E+00  5.71758067E-01
  0.00000000E+00  0.00000000E+00  0.00000000E+00  2.17693424E-01  0.00000000E+00
  0.00000000E+00  0.00000000E+00 -2.67459567E-02  0.00000000E+00  0.00000000E+00
  0.00000000E+00  0.00000000E+00  0.00000000E+00  0.00000000E+00  0.00000000E+00
  5.88214410E-02  1.05483823E-01  0.00000000E+00  0.00000000E+00  0.00000000E+00
 -6.14749153E-01  0.00000000E+00  0.00000000E+00  0.00000000E+00 -4.05734321E-02
  0.00000000E+00  0.00000000E+00  0.00000000E+00  1.12000278E+00  0.00000000E+00
  0.00000000E+00  0.00000000E+00  3.07521555E-03  0.00000000E+00  0.00000000E+00
  5.32642958E-03  0.00000000E+00  0.00000000E+00  0.00000000E+00  0.00000000E+00
 -1.87444311E-01  0.00000000E+00  0.00000000E+00  0.00000000E+00 -2.97432449E-01
  0.00000000E+00  0.00000000E+00  0.00000000E+00  3.78776246E-01  0.00000000E+00
  0.00000000E+00  0.00000000E+00  7.44488394E-01  0.00000000E+00  0.00000000E+00
  0.00000000E+00  0.00000000E+00  0.00000000E+00  0.00000000E+00  0.00000000E+00
  0.00000000E+00  0.00000000E+00  0.00000000E+00 -1.82537262E-01  0.00000000E+00
  0.00000000E+00  0.00000000E+00 -2.94519137E-01  0.00000000E+00  0.00000000E+00
  0.00000000E+00  3.27195959E-01  0.00000000E+00  0.00000000E+00  0.00000000E+00
  7.82934562E-01  0.00000000E+00  0.00000000E+00  0.00000000E+00  0.00000000E+00
  0.00000000E+00  0.00000000E+00  0.00000000E+00 -1.82537262E-01  0.00000000E+00
  0.00000000E+00  0.00000000E+00 -2.94519137E-01  0.00000000E+00  0.00000000E+00
  0.00000000E+00  3.27195959E-01  0.00000000E+00  0.00000000E+00  0.00000000E+00
  7.82934562E-01  0.00000000E+00  0.00000000E+00  0.00000000E+00  0.00000000E+00
  0.00000000E+00  0.00000000E+00  0.00000000E+00  0.00000000E+00  0.00000000E+00
  0.00000000E+00 -2.38039811E-01  0.00000000E+00  0.00000000E+00  0.00000000E+00
 -4.98010971E-01  0.00000000E+00  0.00000000E+00  0.00000000E+00  1.63242290E+00
  0.00000000E+00  0.00000000E+00  0.00000000E+00 -1.26262639E+00  0.00000000E+00
  0.00000000E+00  0.00000000E+00  0.00000000E+00  0.00000000E+00  0.00000000E+00
  0.00000000E+00  0.00000000E+00  0.00000000E+00  0.00000000E+00 -2.41309894E-01
  0.00000000E+00  0.00000000E+00  0.00000000E+00 -5.22683213E-01  0.00000000E+00
  0.00000000E+00  0.00000000E+00  1.64672672E+00  0.00000000E+00  0.00000000E+00
  0.00000000E+00 -1.24063127E+00  0.00000000E+00  0.00000000E+00  0.00000000E+00
  0.00000000E+00  0.00000000E+00  0.00000000E+00  0.00000000E+00 -2.41309894E-01
  0.00000000E+00  0.00000000E+00  0.00000000E+00 -5.22683213E-01  0.00000000E+00
  0.00000000E+00  0.00000000E+00  1.64672672E+00  0.00000000E+00  0.00000000E+00
  0.00000000E+00 -1.24063127E+00  0.00000000E+00  0.00000000E+00  0.00000000E+00
  0.00000000E+00  0.00000000E+00  0.00000000E+00  0.00000000E+00  9.71279929E-02
  1.88932864E-01  0.00000000E+00  0.00000000E+00  0.00000000E+00 -1.56501986E+00
  0.00000000E+00  0.00000000E+00  0.00000000E+00  2.68627428E+00  0.00000000E+00
  0.00000000E+00  0.00000000E+00 -1.58583818E+00  0.00000000E+00  0.00000000E+00
  0.00000000E+00  4.49671884E-03  0.00000000E+00  0.00000000E+00  7.78854549E-03
  0.00000000E+00 -4.29284264E-03 -6.11896985E-03  0.00000000E+00  0.00000000E+00
  0.00000000E+00  3.36891070E-02  0.00000000E+00  0.00000000E+00  0.00000000E+00
 -1.81886303E-02  0.00000000E+00  0.00000000E+00  0.00000000E+00  6.65463900E-03
  0.00000000E+00  0.00000000E+00  0.00000000E+00  4.99881911E-01  0.00000000E+00
  0.00000000E+00  8.65820867E-01  0.00000000E+00  0.00000000E+00  0.00000000E+00
  0.00000000E+00  0.00000000E+00  0.00000000E+00  0.00000000E+00  0.00000000E+00
  0.00000000E+00  0.00000000E+00  0.00000000E+00  0.00000000E+00  0.00000000E+00
  0.00000000E+00  0.00000000E+00  0.00000000E+00  0.00000000E+00  0.00000000E+00
  0.00000000E+00  0.00000000E+00  0.00000000E+00  0.00000000E+00  1.00000000E+00
  0.00000000E+00  0.00000000E+00  0.00000000E+00  0.00000000E+00  0.00000000E+00
  0.00000000E+00  0.00000000E+00  0.00000000E+00  0.00000000E+00  0.00000000E+00
  0.00000000E+00  0.00000000E+00  0.00000000E+00  0.00000000E+00  0.00000000E+00
  0.00000000E+00  0.00000000E+00  0.00000000E+00  0.00000000E+00  1.00000000E+00
  0.00000000E+00  0.00000000E+00  0.00000000E+00  0.00000000E+00  0.00000000E+00
  0.00000000E+00  0.00000000E+00  0.00000000E+00  0.00000000E+00  0.00000000E+00
  0.00000000E+00  0.00000000E+00  0.00000000E+00  0.00000000E+00  0.00000000E+00
  0.00000000E+00  0.00000000E+00  0.00000000E+00  0.00000000E+00  0.00000000E+00
  1.00000000E+00  0.00000000E+00  0.00000000E+00  0.00000000E+00  6.16786322E-17
  4.15535011E-17  0.00000000E+00  0.00000000E+00  0.00000000E+00  1.16964587E-16
  0.00000000E+00  0.00000000E+00  0.00000000E+00 -5.83505346E-16  0.00000000E+00
  0.00000000E+00  0.00000000E+00  3.94401644E-16  0.00000000E+00  0.00000000E+00
  0.00000000E+00  8.66025404E-01  0.00000000E+00  0.00000000E+00 -5.00000000E-01
  0.00000000E+00  0.00000000E+00  0.00000000E+00  0.00000000E+00 -1.22825212E+00
  0.00000000E+00  0.00000000E+00  0.00000000E+00  1.56135557E+00  0.00000000E+00
  0.00000000E+00  0.00000000E+00 -9.64647773E-01  0.00000000E+00  0.00000000E+00
  0.00000000E+00  3.79458434E-01  0.00000000E+00  0.00000000E+00  0.00000000E+00
  0.00000000E+00  0.00000000E+00  0.00000000E+00  0.00000000E+00  0.00000000E+00
 -1.23063416E+00  0.00000000E+00  0.00000000E+00  0.00000000E+00  1.55690679E+00
  0.00000000E+00  0.00000000E+00  0.00000000E+00 -9.54368109E-01  0.00000000E+00
  0.00000000E+00  0.00000000E+00  3.74452495E-01  0.00000000E+00  0.00000000E+00
  0.00000000E+00  0.00000000E+00  0.00000000E+00  0.00000000E+00  0.00000000E+00
  0.00000000E+00  0.00000000E+00  0.00000000E+00  0.00000000E+00 -1.23063416E+00
  0.00000000E+00  0.00000000E+00  0.00000000E+00  1.55690679E+00  0.00000000E+00
  0.00000000E+00  0.00000000E+00 -9.54368109E-01  0.00000000E+00  0.00000000E+00
  0.00000000E+00  3.74452495E-01  0.00000000E+00  0.00000000E+00  0.00000000E+00
  0.00000000E+00  0.00000000E+00 -2.32513603E+00  2.39360603E+00  0.00000000E+00
  0.00000000E+00  0.00000000E+00 -1.99851428E-01  0.00000000E+00  0.00000000E+00
  0.00000000E+00  1.98689108E-01  0.00000000E+00  0.00000000E+00  0.00000000E+00
 -8.17375069E-02  0.00000000E+00  0.00000000E+00  0.00000000E+00 -1.12511179E-04
  0.00000000E+00  0.00000000E+00 -1.94875079E-04  0.00000000E+00
Orthonormal basis                          R   N=         484
  2.43201941E-01  2.48566728E-01  0.00000000E+00  0.00000000E+00  0.00000000E+00
  3.11909684E-01  0.00000000E+00  0.00000000E+00  0.00000000E+00  3.08248900E-01
  0.00000000E+00  0.00000000E+00  0.00000000E+00  2.48713467E-01  0.00000000E+00
  0.00000000E+00  0.00000000E+00 -1.86450083E-17  0.00000000E+00  0.00000000E+00
 -1.65744237E-17  0.00000000E+00  4.33756576E-01  4.30075379E-01  0.00000000E+00
  0.00000000E+00  0.00000000E+00 -8.69081506E-02  0.00000000E+00  0.00000000E+00
  0.00000000E+00 -3.18143230E-01  0.00000000E+00  0.00000000E+00  0.00000000E+00
 -3.50676936E-01  0.00000000E+00  0.00000000E+00  0.00000000E+00  5.04247227E-17
  0.00000000E+00  0.00000000E+00  5.95485801E-17  0.00000000E+00 -6.77808663E-17
 -6.88289112E-17  0.00000000E+00  0.00000000E+00  0.00000000E+00  1.36908280E-16
  0.00000000E+00  0.00000000E+00  0.00000000E+00  1.29363799E-16  0.00000000E+00
  0.00000000E+00  0.00000000E+00 -9.95676482E-17  0.00000000E+00  0.00000000E+00
  0.00000000E+00  5.93254726E-01  0.00000000E+00  0.00000000E+00  8.05014801E-01
  0.00000000E+00 -3.41496546E-29 -1.12034312E-17  0.00000000E+00  0.00000000E+00
  0.00000000E+00  2.47945679E-17  0.00000000E+00  0.00000000E+00  0.00000000E+00
  1.74212799E-17  0.00000000E+00  0.00000000E+00  0.00000000E+00 -2.06756134E-17
  0.00000000E+00  0.00000000E+00  0.00000000E+00  8.05014801E-01  0.00000000E+00
  0.00000000E+00 -5.93254726E-01  0.00000000E+00 -2.80960915E-01 -1.92850672E-01
  0.00000000E+00  0.00000000E+00  0.00000000E+00  1.02585685E+00  0.00000000E+00
  0.00000000E+00  0.00000000E+00  5.78929334E-02  0.00000000E+00  0.00000000E+00
  0.00000000E+00 -8.90798636E-01  0.00000000E+00  0.00000000E+00  0.00000000E+00
 -1.95830849E-16  0.00000000E+00  0.00000000E+00 -1.86469796E-16  0.00000000E+00
  2.00973273E+00 -1.90689255E+00  0.00000000E+00  0.00000000E+00  0.00000000E+00
 -6.29485453E-01  0.00000000E+00  0.00000000E+00  0.00000000E+00  1.28490118E+00
  0.00000000E+00  0.00000000E+00  0.00000000E+00 -8.62468877E-01  0.00000000E+00
  0.00000000E+00  0.00000000E+00 -1.35125723E-16  0.00000000E+00  0.00000000E+00
 -1.05866146E-16  0.00000000E+00 -1.17359287E+00  1.46154954E+00  0.00000000E+00
  0.00000000E+00  0.00000000E+00 -1.42385398E+00  0.00000000E+00  0.00000000E+00
  0.00000000E+00  2.34484702E+00  0.00000000E+00  0.00000000E+00  0.00000000E+00
 -1.43359825E+00  0.00000000E+00  0.00000000E+00  0.00000000E+00 -1.50344135E-16
  0.00000000E+00  0.00000000E+00 -1.72298177E-16  0.00000000E+00  0.00000000E+00
  0.00000000E+00  0.00000000E+00  0.00000000E+00  0.00000000E+00  0.00000000E+00
  0.00000000E+00  0.00000000E+00  0.00000000E+00  0.00000000E+00  0.00000000E+00
  0.00000000E+00  0.00000000E+00  0.00000000E+00  0.00000000E+00  0.00000000E+00
  0.00000000E+00  0.00000000E+00  0.00000000E+00  0.00000000E+00  0.00000000E+00
  1.00000000E+00  0.00000000E+00  0.00000000E+00  0.00000000E+00  0.00000000E+00
  0.00000000E+00  0.00000000E+00  0.00000000E+00  0.00000000E+00  0.00000000E+00
  0.00000000E+00  0.00000000E+00  0.00000000E+00  0.00000000E+00  0.00000000E+00
  0.00000000E+00  0.00000000E+00  0.00000000E+00  0.00000000E+00  1.00000000E+00
  0.00000000E+00  0.00000000E+00  0.00000000E+00  0.00000000E+00  0.00000000E+00
  0.00000000E+00  0.00000000E+00  0.00000000E+00  0.00000000E+00  0.00000000E+00
  0.00000000E+00  0.00000000E+00  0.00000000E+00  0.00000000E+00  0.00000000E+00
  0.00000000E+00  0.00000000E+00  0.00000000E+00  0.00000000E+00  0.00000000E+00
  0.00000000E+00  0.00000000E+00  1.00000000E+00  0.00000000E+00  0.00000000E+00
  0.00000000E+00  0.00000000E+00  0.00000000E+00  0.00000000E+00  2.54113776E-01
  0.00000000E+00  0.00000000E+00  0.00000000E+00  3.72149011E-01  0.00000000E+00
  0.00000000E+00  0.00000000E+00  3.90572601E-01  0.00000000E+00  0.00000000E+00
  0.00000000E+00  2.99308236E-01  0.00000000E+00  0.00000000E+00  0.00000000E+00
  0.00000000E+00  0.00000000E+00  0.00000000E+00  0.00000000E+00  0.00000000E+00
  0.00000000E+00  6.04158525E-01  0.00000000E+00  0.00000000E+00  0.00000000E+00
  3.26994324E-01  0.00000000E+00  0.00000000E+00  0.00000000E+00 -2.97276902E-01