fubar                                                                   
SP        UPBE1PBE                                                    6-311+G(d,p)        
Number of atoms                            I                1
Info1-9                                    I   N=           9
          11          10           0           0           0         110
           1          18       -1302
Full Title                                 C   N=           1
fubar       
Route                                      C   N=           3
#PBE1PBE/6-311+G(d,p) scf=tight     
Charge                                     I               -2
Multiplicity                               I                3
Number of electrons                        I               16
Number of alpha electrons                  I                9
Number of beta electrons                   I                7
Number of basis functions                  I               30
Number of independent functions            I               30
Number of point charges in /Mol/           I                0
Number of translation vectors              I                0
Atomic numbers                             I   N=           1
          14
Nuclear charges                            R   N=           1
  1.40000000E+01
Current cartesian coordinates              R   N=           3
  0.00000000E+00  0.00000000E+00  0.00000000E+00
Number of symbols in /Mol/                 I                0
Int Atom Types                             I   N=           1
           0
Force Field                                I                0
Atom Types                                 C   N=           1
            
MM charges                                 R   N=           1
  0.00000000E+00
Integer atomic weights                     I   N=           1
          28
Real atomic weights                        R   N=           1
  2.79769284E+01
Atom fragment info                         I   N=           1
           0
Atom residue num                           I   N=           1
           0
Nuclear spins                              I   N=           1
           0
Nuclear ZEff                               R   N=           1
 -1.22500000E+01
Nuclear ZNuc                               R   N=           1
  1.40000000E+01
Nuclear QMom                               R   N=           1
  0.00000000E+00
Nuclear GFac                               R   N=           1
  0.00000000E+00
MicOpt                                     I   N=           1
          -1
Number of residues                         I                0
Number of secondary structures             I                0
SymInf integers                            I   N=          26
           1           8           1           1           1           1
          -1          -1          -1           1          -1          -1
          -1           1          -1          -1          -1          -1
           1           1           1          -1           1           1
           1          -1
RotTr to input orientation                 R   N=          12
  0.00000000E+00  0.00000000E+00 -1.00000000E+00  0.00000000E+00  1.00000000E+00
  0.00000000E+00  1.00000000E+00  0.00000000E+00  0.00000000E+00  0.00000000E+00
  0.00000000E+00  0.00000000E+00
Number of contracted shells                I               13
Number of primitive shells                 I               24
Pure/Cartesian d shells                    I                0
Pure/Cartesian f shells                    I                0
Highest angular momentum                   I                2
Largest degree of contraction              I                6
Shell types                                I   N=          13
           0           0           0           0           0           0
          -1           1           1           1           1           1
          -2
Number of primitives per shell             I   N=          13
           6           3           1           1           1           1
           1           4           2           1           1           1
           1
Shell to atom map                          I   N=          13
           1           1           1           1           1           1
           1           1           1           1           1           1
           1
Primitive exponents                        R   N=          24
  6.93792300E+04  1.03549400E+04  2.33387960E+03  6.57142950E+02  2.14301130E+02
  7.76291680E+01  7.76291680E+01  3.06308070E+01  1.28012950E+01  3.92686600E+00
  1.45234300E+00  2.56234000E-01  9.42790000E-02  3.31000000E-02  3.35483190E+02
  7.89003660E+01  2.49881500E+01  9.21971100E+00  3.62114000E+00  1.45131000E+00
  5.04977000E-01  1.86317000E-01  6.54320000E-02  4.50000000E-01
Contraction coefficients                   R   N=          24
  7.57000408E-04  5.93200320E-03  3.10880168E-02  1.24967067E-01  3.86897209E-01
  5.54888299E-01  1.77880945E-01  6.27764806E-01  2.47622924E-01  1.00000000E+00
  1.00000000E+00  1.00000000E+00  1.00000000E+00  1.00000000E+00  8.86599815E-03
  6.82989857E-02  2.90957939E-01  7.32116847E-01  6.19879440E-01  4.39148312E-01
  1.00000000E+00  1.00000000E+00  1.00000000E+00  1.00000000E+00
P(S=P) Contraction coefficients            R   N=          24
  0.00000000E+00  0.00000000E+00  0.00000000E+00  0.00000000E+00  0.00000000E+00
  0.00000000E+00  0.00000000E+00  0.00000000E+00  0.00000000E+00  0.00000000E+00
  0.00000000E+00  0.00000000E+00  0.00000000E+00  1.00000000E+00  0.00000000E+00
  0.00000000E+00  0.00000000E+00  0.00000000E+00  0.00000000E+00  0.00000000E+00
  0.00000000E+00  0.00000000E+00  0.00000000E+00  0.00000000E+00
Coordinates of each shell                  R   N=          39
  0.00000000E+00  0.00000000E+00  0.00000000E+00  0.00000000E+00  0.00000000E+00
  0.00000000E+00  0.00000000E+00  0.00000000E+00  0.00000000E+00  0.00000000E+00
  0.00000000E+00  0.00000000E+00  0.00000000E+00  0.00000000E+00  0.00000000E+00
  0.00000000E+00  0.00000000E+00  0.00000000E+00  0.00000000E+00  0.00000000E+00
  0.00000000E+00  0.00000000E+00  0.00000000E+00  0.00000000E+00  0.00000000E+00
  0.00000000E+00  0.00000000E+00  0.00000000E+00  0.00000000E+00  0.00000000E+00
  0.00000000E+00  0.00000000E+00  0.00000000E+00  0.00000000E+00  0.00000000E+00
  0.00000000E+00  0.00000000E+00  0.00000000E+00  0.00000000E+00
Num ILSW                                   I              100
ILSW                                       I   N=         100
           1           0           0           0           2           0
           0           0           0           0        1009          -1
           5           0           0           0           0           0
           0           0           0           0           0           0
           1           0           0           0           0           0
           0           0      100000           0          -1           0
           0           0           0           0           0           0
           0           0           0           1           0           0
           0 -2000000000           1           0           0           0
           0           1           4          52           0           0
           0           0          13           0           0           0
           0           0           0           1           0           1
           0           0           0           0           0           0
           0           0           0           0           0           0
           0           0           0           0           0           0
           0           0           0           0           0           0
           0           0           0           0
Num RLSW                                   I               52
RLSW                                       R   N=          52
  7.50000000E-01  7.50000000E-01  1.00000000E+00  1.00000000E+00  2.50000000E-01
  0.00000000E+00  0.00000000E+00  1.00000000E+00  0.00000000E+00  0.00000000E+00
  0.00000000E+00  0.00000000E+00  1.00000000E+00  0.00000000E+00  0.00000000E+00
  0.00000000E+00  0.00000000E+00  1.00000000E+00  0.00000000E+00  0.00000000E+00
  0.00000000E+00  0.00000000E+00  1.00000000E+00  0.00000000E+00  0.00000000E+00
  0.00000000E+00  0.00000000E+00  1.00000000E+00  0.00000000E+00  0.00000000E+00
  0.00000000E+00  0.00000000E+00  1.00000000E+00  0.00000000E+00  0.00000000E+00
  0.00000000E+00  0.00000000E+00  0.00000000E+00  1.00000000E+00  1.00000000E+00
  0.00000000E+00  1.00000000E+00  0.00000000E+00  0.00000000E+00  0.00000000E+00
  0.00000000E+00  0.00000000E+00  0.00000000E+00  0.00000000E+00  0.00000000E+00
  0.00000000E+00  0.00000000E+00
MxBond                                     I                1
NBond                                      I   N=           1
           0
IBond                                      I   N=           1
           0
RBond                                      R   N=           1
  0.00000000E+00
Virial Ratio                               R      2.001109709624626E+00
SCF Energy                                 R     -2.891392397942972E+02
Total Energy                               R     -2.891392397942972E+02
S**2                                       R      2.089963265853140E+00
S**2 after annihilation                    R      2.000096140147148E+00
RMS Density                                R      1.106645948687389E-09
Job Status                                 I                1
Nuclear derivative order                   I                0
External E-field                           R   N=          35
  0.00000000E+00  0.00000000E+00  0.00000000E+00  0.00000000E+00  0.00000000E+00
  0.00000000E+00  0.00000000E+00  0.00000000E+00  0.00000000E+00  0.00000000E+00
  0.00000000E+00  0.00000000E+00  0.00000000E+00  0.00000000E+00  0.00000000E+00
  0.00000000E+00  0.00000000E+00  0.00000000E+00  0.00000000E+00  0.00000000E+00
  0.00000000E+00  0.00000000E+00  0.00000000E+00  0.00000000E+00  0.00000000E+00
  0.00000000E+00  0.00000000E+00  0.00000000E+00  0.00000000E+00  0.00000000E+00
  0.00000000E+00  0.00000000E+00  0.00000000E+00  0.00000000E+00  0.00000000E+00
IOpCl                                      I                1
IROHF                                      I                0
Alpha Orbital Energies                     R   N=          30
 -6.59015596E+01 -4.97920788E+00 -3.31545658E+00 -3.31545658E+00 -3.31123179E+00
 -8.60707440E-02  1.57621535E-01  1.57621535E-01  1.76286701E-01  2.77345893E-01
  2.84067589E-01  2.84067589E-01  2.93459567E-01  5.92975311E-01  5.92975311E-01
  6.07672653E-01  7.42635658E-01  9.53969369E-01  9.53969369E-01  9.68210182E-01
  9.68210182E-01  9.73176963E-01  1.57603896E+00  1.57603896E+00  1.59097341E+00
  5.61990932E+00  1.17097999E+01  1.17097999E+01  1.17152229E+01  1.41188982E+02
Beta Orbital Energies                      R   N=          30
 -6.58965323E+01 -4.97397115E+00 -3.30583979E+00 -3.30583979E+00 -3.30558015E+00
 -1.90979562E-02  1.99442895E-01  2.45470113E-01  2.45470113E-01  2.90451102E-01
  3.07264732E-01  3.22158263E-01  3.22158263E-01  6.24279947E-01  6.29514097E-01
  6.29514097E-01  7.72024887E-01  1.01196825E+00  1.01221424E+00  1.01221424E+00
  1.01798446E+00  1.01798446E+00  1.60773178E+00  1.60946830E+00  1.60946830E+00
  5.63391387E+00  1.17232525E+01  1.17236939E+01  1.17236939E+01  1.41193552E+02
Alpha MO coefficients                      R   N=         900
  4.17761868E-01  6.46705506E-01  1.36060301E-02 -4.34767031E-03  1.71144205E-03
 -1.18972179E-03  3.90524991E-04  0.00000000E+00  0.00000000E+00  0.00000000E+00
  0.00000000E+00  0.00000000E+00  0.00000000E+00  0.00000000E+00  0.00000000E+00
  0.00000000E+00  0.00000000E+00  0.00000000E+00  0.00000000E+00  0.00000000E+00
  0.00000000E+00  0.00000000E+00  0.00000000E+00  0.00000000E+00  0.00000000E+00
 -3.80591811E-08  0.00000000E+00  0.00000000E+00 -6.59204352E-08  0.00000000E+00
 -1.17120395E-01 -3.04935306E-01  5.39613929E-01  5.71727742E-01  5.11519900E-02
 -2.44563023E-02  7.49206128E-03  0.00000000E+00  0.00000000E+00  0.00000000E+00
  0.00000000E+00  0.00000000E+00  0.00000000E+00  0.00000000E+00  0.00000000E+00
  0.00000000E+00  0.00000000E+00  0.00000000E+00  0.00000000E+00  0.00000000E+00
  0.00000000E+00  0.00000000E+00  0.00000000E+00  0.00000000E+00  0.00000000E+00
  1.50342275E-04  0.00000000E+00  0.00000000E+00  2.60400459E-04  0.00000000E+00
  0.00000000E+00  0.00000000E+00  0.00000000E+00  0.00000000E+00  0.00000000E+00
  0.00000000E+00  0.00000000E+00 -2.00040526E-03  0.00000000E+00  0.00000000E+00
  4.03324327E-01  0.00000000E+00  0.00000000E+00  6.90692160E-01  0.00000000E+00
  0.00000000E+00  5.64953778E-02  0.00000000E+00  0.00000000E+00 -7.77560326E-03
  0.00000000E+00  0.00000000E+00  4.51609191E-03  0.00000000E+00  0.00000000E+00
  0.00000000E+00  0.00000000E+00  0.00000000E+00  0.00000000E+00  0.00000000E+00
  0.00000000E+00  0.00000000E+00  0.00000000E+00  0.00000000E+00  0.00000000E+00
  0.00000000E+00  0.00000000E+00  0.00000000E+00  0.00000000E+00 -2.00040526E-03
  0.00000000E+00  0.00000000E+00  4.03324327E-01  0.00000000E+00  0.00000000E+00
  6.90692160E-01  0.00000000E+00  0.00000000E+00  5.64953778E-02  0.00000000E+00
  0.00000000E+00 -7.77560326E-03  0.00000000E+00  0.00000000E+00  4.51609191E-03
  0.00000000E+00  0.00000000E+00  0.00000000E+00  0.00000000E+00  0.00000000E+00
  0.00000000E+00  0.00000000E+00  0.00000000E+00  0.00000000E+00  0.00000000E+00
  0.00000000E+00  0.00000000E+00  0.00000000E+00 -1.96762935E-03  0.00000000E+00
  0.00000000E+00  4.03415233E-01  0.00000000E+00  0.00000000E+00  6.90911442E-01
  0.00000000E+00  0.00000000E+00  5.58541500E-02  0.00000000E+00  0.00000000E+00
 -7.67549427E-03  0.00000000E+00  0.00000000E+00  4.44258049E-03  0.00000000E+00
  0.00000000E+00  0.00000000E+00  0.00000000E+00  0.00000000E+00  0.00000000E+00
  3.08060885E-02  8.45233806E-02 -1.91183000E-01 -3.27766551E-01  5.78723093E-01
  5.12758833E-01  8.49366384E-02  0.00000000E+00  0.00000000E+00  0.00000000E+00
  0.00000000E+00  0.00000000E+00  0.00000000E+00  0.00000000E+00  0.00000000E+00
  0.00000000E+00  0.00000000E+00  0.00000000E+00  0.00000000E+00  0.00000000E+00
  0.00000000E+00  0.00000000E+00  0.00000000E+00  0.00000000E+00  0.00000000E+00
  7.27850282E-03  0.00000000E+00  0.00000000E+00  1.26067367E-02  0.00000000E+00
  0.00000000E+00  0.00000000E+00  0.00000000E+00  0.00000000E+00  0.00000000E+00
  0.00000000E+00  0.00000000E+00  0.00000000E+00  0.00000000E+00  5.19837239E-01
  0.00000000E+00  0.00000000E+00 -7.59281725E-02  0.00000000E+00  0.00000000E+00
 -1.31374249E-01  0.00000000E+00  0.00000000E+00  1.47887449E-01  0.00000000E+00
  0.00000000E+00  4.72551487E-01  0.00000000E+00  0.00000000E+00  9.46203302E-02
  0.00000000E+00  0.00000000E+00  0.00000000E+00  0.00000000E+00  0.00000000E+00
  0.00000000E+00  0.00000000E+00  0.00000000E+00  0.00000000E+00  0.00000000E+00
  0.00000000E+00  0.00000000E+00  5.19837239E-01  0.00000000E+00  0.00000000E+00
 -7.59281725E-02  0.00000000E+00  0.00000000E+00 -1.31374249E-01  0.00000000E+00
  0.00000000E+00  1.47887449E-01  0.00000000E+00  0.00000000E+00  4.72551487E-01
  0.00000000E+00  0.00000000E+00  9.46203302E-02  0.00000000E+00  0.00000000E+00
  0.00000000E+00  0.00000000E+00  0.00000000E+00  0.00000000E+00  0.00000000E+00
  0.00000000E+00  0.00000000E+00  0.00000000E+00  0.00000000E+00  0.00000000E+00
  0.00000000E+00  0.00000000E+00  0.00000000E+00  6.56575271E-01  0.00000000E+00
  0.00000000E+00 -7.17879635E-02  0.00000000E+00  0.00000000E+00 -1.23436050E-01
  0.00000000E+00  0.00000000E+00  1.35936993E-01  0.00000000E+00  0.00000000E+00
  4.63329996E-01  0.00000000E+00  0.00000000E+00 -1.50869455E-02  0.00000000E+00
  0.00000000E+00  0.00000000E+00  0.00000000E+00  0.00000000E+00  0.00000000E+00
 -1.04784662E-02 -2.98925650E-02  7.80982268E-02  8.03409755E-02  6.10223971E-02
 -1.46949489E+00  1.79869106E+00  0.00000000E+00  0.00000000E+00  0.00000000E+00
  0.00000000E+00  0.00000000E+00  0.00000000E+00  0.00000000E+00  0.00000000E+00
  0.00000000E+00  0.00000000E+00  0.00000000E+00  0.00000000E+00  0.00000000E+00
  0.00000000E+00  0.00000000E+00  0.00000000E+00  0.00000000E+00  0.00000000E+00
 -2.50931255E-03  0.00000000E+00  0.00000000E+00 -4.34625683E-03  0.00000000E+00
  0.00000000E+00  0.00000000E+00  0.00000000E+00  0.00000000E+00  0.00000000E+00
  0.00000000E+00  0.00000000E+00  0.00000000E+00  0.00000000E+00  1.90444207E+00
  0.00000000E+00  0.00000000E+00  5.14930316E-02  0.00000000E+00  0.00000000E+00
  9.80048076E-02  0.00000000E+00  0.00000000E+00 -1.85569516E-01  0.00000000E+00
  0.00000000E+00  1.36965199E-03  0.00000000E+00  0.00000000E+00 -1.59288630E+00
  0.00000000E+00  0.00000000E+00  0.00000000E+00  0.00000000E+00  0.00000000E+00
  0.00000000E+00  0.00000000E+00  0.00000000E+00  0.00000000E+00  0.00000000E+00
  0.00000000E+00  0.00000000E+00  1.90444207E+00  0.00000000E+00  0.00000000E+00
  5.14930316E-02  0.00000000E+00  0.00000000E+00  9.80048076E-02  0.00000000E+00
  0.00000000E+00 -1.85569516E-01  0.00000000E+00  0.00000000E+00  1.36965199E-03
  0.00000000E+00  0.00000000E+00 -1.59288630E+00  0.00000000E+00  0.00000000E+00
  0.00000000E+00  0.00000000E+00  0.00000000E+00  0.00000000E+00  0.00000000E+00
  0.00000000E+00  0.00000000E+00  0.00000000E+00  0.00000000E+00  0.00000000E+00
  0.00000000E+00  0.00000000E+00  0.00000000E+00  1.88116755E+00  0.00000000E+00
  0.00000000E+00  5.61765356E-02  0.00000000E+00  0.00000000E+00  1.06383983E-01
  0.00000000E+00  0.00000000E+00 -1.99381835E-01  0.00000000E+00  0.00000000E+00
 -7.95097004E-03  0.00000000E+00  0.00000000E+00 -1.63682843E+00  0.00000000E+00
  0.00000000E+00  0.00000000E+00  0.00000000E+00  0.00000000E+00  0.00000000E+00
  0.00000000E+00  0.00000000E+00  0.00000000E+00  0.00000000E+00  0.00000000E+00
  0.00000000E+00  0.00000000E+00 -1.46160490E+00  0.00000000E+00  0.00000000E+00
  8.55334818E-02  0.00000000E+00  0.00000000E+00  1.29620681E-01  0.00000000E+00
  0.00000000E+00 -2.91388287E-02  0.00000000E+00  0.00000000E+00 -1.59293628E+00
  0.00000000E+00  0.00000000E+00  2.78570939E+00  0.00000000E+00  0.00000000E+00
  0.00000000E+00  0.00000000E+00  0.00000000E+00  0.00000000E+00  0.00000000E+00
  0.00000000E+00  0.00000000E+00  0.00000000E+00  0.00000000E+00  0.00000000E+00
  0.00000000E+00  0.00000000E+00  0.00000000E+00  0.00000000E+00 -1.46160490E+00
  0.00000000E+00  0.00000000E+00  8.55334818E-02  0.00000000E+00  0.00000000E+00
  1.29620681E-01  0.00000000E+00  0.00000000E+00 -2.91388287E-02  0.00000000E+00
  0.00000000E+00 -1.59293628E+00  0.00000000E+00  0.00000000E+00  2.78570939E+00
  0.00000000E+00  0.00000000E+00  0.00000000E+00  0.00000000E+00  0.00000000E+00
  0.00000000E+00  0.00000000E+00  0.00000000E+00  0.00000000E+00  0.00000000E+00
  0.00000000E+00  0.00000000E+00  0.00000000E+00 -1.43859968E+00  0.00000000E+00
  0.00000000E+00  8.64506390E-02  0.00000000E+00  0.00000000E+00  1.30654612E-01
  0.00000000E+00  0.00000000E+00 -3.01413214E-02  0.00000000E+00  0.00000000E+00
 -1.59716000E+00  0.00000000E+00  0.00000000E+00  2.76523419E+00  0.00000000E+00
  0.00000000E+00  0.00000000E+00  0.00000000E+00  0.00000000E+00  0.00000000E+00
 -3.18882947E-02 -8.42249076E-02  1.60659768E-01  5.50155553E-01 -2.68468258E+00
  3.26156331E+00 -1.24190507E+00  0.00000000E+00  0.00000000E+00  0.00000000E+00
  0.00000000E+00  0.00000000E+00  0.00000000E+00  0.00000000E+00  0.00000000E+00
  0.00000000E+00  0.00000000E+00  0.00000000E+00  0.00000000E+00  0.00000000E+00
  0.00000000E+00  0.00000000E+00  0.00000000E+00  0.00000000E+00  0.00000000E+00
 -5.19344173E-03  0.00000000E+00  0.00000000E+00 -8.99530494E-03  0.00000000E+00
  0.00000000E+00  0.00000000E+00  0.00000000E+00  0.00000000E+00  0.00000000E+00
  0.00000000E+00  0.00000000E+00  0.00000000E+00  0.00000000E+00  0.00000000E+00
  0.00000000E+00  0.00000000E+00  0.00000000E+00  0.00000000E+00  0.00000000E+00
  0.00000000E+00  0.00000000E+00  0.00000000E+00  0.00000000E+00  0.00000000E+00
  0.00000000E+00  0.00000000E+00  0.00000000E+00  0.00000000E+00  0.00000000E+00
  0.00000000E+00  1.00000000E+00  0.00000000E+00  0.00000000E+00  0.00000000E+00
 -3.18641033E-16 -1.04398510E-15  3.66927505E-15  1.73803364E-15 -1.64093161E-14
  1.94519595E-14 -9.40076242E-15  0.00000000E+00  0.00000000E+00  0.00000000E+00
  0.00000000E+00  0.00000000E+00  0.00000000E+00  0.00000000E+00  0.00000000E+00
  0.00000000E+00  0.00000000E+00  0.00000000E+00  0.00000000E+00  0.00000000E+00
  0.00000000E+00  0.00000000E+00  0.00000000E+00  0.00000000E+00  0.00000000E+00
  8.66025404E-01  0.00000000E+00  0.00000000E+00 -5.00000000E-01  0.00000000E+00
  0.00000000E+00  0.00000000E+00  0.00000000E+00  0.00000000E+00  0.00000000E+00
  0.00000000E+00  0.00000000E+00  0.00000000E+00  0.00000000E+00  0.00000000E+00
  0.00000000E+00  0.00000000E+00  0.00000000E+00  0.00000000E+00  0.00000000E+00
  0.00000000E+00  0.00000000E+00  0.00000000E+00  0.00000000E+00  0.00000000E+00
  0.00000000E+00  0.00000000E+00  0.00000000E+00  0.00000000E+00  0.00000000E+00
  0.00000000E+00  0.00000000E+00  0.00000000E+00  0.00000000E+00  1.00000000E+00
  0.00000000E+00  0.00000000E+00  0.00000000E+00  0.00000000E+00  0.00000000E+00
  0.00000000E+00  0.00000000E+00  0.00000000E+00  0.00000000E+00  0.00000000E+00
  0.00000000E+00  0.00000000E+00  0.00000000E+00  0.00000000E+00  0.00000000E+00
  0.00000000E+00  0.00000000E+00  0.00000000E+00  0.00000000E+00  0.00000000E+00
  0.00000000E+00  0.00000000E+00  0.00000000E+00  0.00000000E+00  0.00000000E+00
  0.00000000E+00  0.00000000E+00  1.00000000E+00  0.00000000E+00  0.00000000E+00
 -8.87580457E-04 -2.53499871E-03  6.73427590E-03  8.39402337E-03 -3.46442280E-02
  1.80770803E-02 -4.79815540E-03  0.00000000E+00  0.00000000E+00  0.00000000E+00
  0.00000000E+00  0.00000000E+00  0.00000000E+00  0.00000000E+00  0.00000000E+00
  0.00000000E+00  0.00000000E+00  0.00000000E+00  0.00000000E+00  0.00000000E+00
  0.00000000E+00  0.00000000E+00  0.00000000E+00  0.00000000E+00  0.00000000E+00
  4.99913537E-01  0.00000000E+00  0.00000000E+00  8.65875645E-01  0.00000000E+00
  0.00000000E+00  0.00000000E+00  0.00000000E+00  0.00000000E+00  0.00000000E+00
  0.00000000E+00  0.00000000E+00  7.52991791E-01  0.00000000E+00  0.00000000E+00
  1.81933090E-01  0.00000000E+00  0.00000000E+00  4.13107635E-01  0.00000000E+00
  0.00000000E+00 -2.00505025E+00  0.00000000E+00  0.00000000E+00  2.40400241E+00
  0.00000000E+00  0.00000000E+00 -1.70129529E+00  0.00000000E+00  0.00000000E+00
  0.00000000E+00  0.00000000E+00  0.00000000E+00  0.00000000E+00  0.00000000E+00
  0.00000000E+00  0.00000000E+00  0.00000000E+00  0.00000000E+00  0.00000000E+00
  0.00000000E+00  0.00000000E+00  0.00000000E+00  0.00000000E+00  7.52991791E-01
  0.00000000E+00  0.00000000E+00  1.81933090E-01  0.00000000E+00  0.00000000E+00
  4.13107635E-01  0.00000000E+00  0.00000000E+00 -2.00505025E+00  0.00000000E+00
  0.00000000E+00  2.40400241E+00  0.00000000E+00  0.00000000E+00 -1.70129529E+00
  0.00000000E+00  0.00000000E+00  0.00000000E+00  0.00000000E+00  0.00000000E+00
  0.00000000E+00  0.00000000E+00  0.00000000E+00  0.00000000E+00  0.00000000E+00
  0.00000000E+00  0.00000000E+00  0.00000000E+00  7.48980392E-01  0.00000000E+00
  0.00000000E+00  1.82047704E-01  0.00000000E+00  0.00000000E+00  4.12308514E-01
  0.00000000E+00  0.00000000E+00 -2.00427300E+00  0.00000000E+00  0.00000000E+00
  2.40286814E+00  0.00000000E+00  0.00000000E+00 -1.69552371E+00  0.00000000E+00
  0.00000000E+00  0.00000000E+00  0.00000000E+00  0.00000000E+00  0.00000000E+00
  1.11804702E-01  4.18373509E-01 -2.35775127E+00  2.67434210E+00 -1.58936746E+00
  1.11855758E+00 -3.61317399E-01  0.00000000E+00  0.00000000E+00  0.00000000E+00
  0.00000000E+00  0.00000000E+00  0.00000000E+00  0.00000000E+00  0.00000000E+00
  0.00000000E+00  0.00000000E+00  0.00000000E+00  0.00000000E+00  0.00000000E+00
  0.00000000E+00  0.00000000E+00  0.00000000E+00  0.00000000E+00  0.00000000E+00
  4.33960368E-04  0.00000000E+00  0.00000000E+00  7.51641406E-04  0.00000000E+00
  0.00000000E+00  0.00000000E+00  0.00000000E+00  0.00000000E+00  0.00000000E+00
  0.00000000E+00  0.00000000E+00  2.17704355E-01  0.00000000E+00  0.00000000E+00
 -1.19190456E+00  0.00000000E+00  0.00000000E+00  1.37274159E+00  0.00000000E+00
  0.00000000E+00 -1.02272989E+00  0.00000000E+00  0.00000000E+00  7.49850880E-01
  0.00000000E+00  0.00000000E+00 -4.79966155E-01  0.00000000E+00  0.00000000E+00
  0.00000000E+00  0.00000000E+00  0.00000000E+00  0.00000000E+00  0.00000000E+00
  0.00000000E+00  0.00000000E+00  0.00000000E+00  0.00000000E+00  0.00000000E+00
  0.00000000E+00  0.00000000E+00  0.00000000E+00  0.00000000E+00  2.17704355E-01
  0.00000000E+00  0.00000000E+00 -1.19190456E+00  0.00000000E+00  0.00000000E+00
  1.37274159E+00  0.00000000E+00  0.00000000E+00 -1.02272989E+00  0.00000000E+00
  0.00000000E+00  7.49850880E-01  0.00000000E+00  0.00000000E+00 -4.79966155E-01
  0.00000000E+00  0.00000000E+00  0.00000000E+00  0.00000000E+00  0.00000000E+00
  0.00000000E+00  0.00000000E+00  0.00000000E+00  0.00000000E+00  0.00000000E+00
  0.00000000E+00  0.00000000E+00  0.00000000E+00  2.17688041E-01  0.00000000E+00
  0.00000000E+00 -1.19183513E+00  0.00000000E+00  0.00000000E+00  1.37288643E+00
  0.00000000E+00  0.00000000E+00 -1.02331815E+00  0.00000000E+00  0.00000000E+00
  7.50216641E-01  0.00000000E+00  0.00000000E+00 -4.80036141E-01  0.00000000E+00
  0.00000000E+00  0.00000000E+00  0.00000000E+00  0.00000000E+00  0.00000000E+00
 -1.54885845E+00  1.85518982E+00 -1.23419276E+00  7.73572548E-01 -3.30227954E-01
  2.29663250E-01 -7.55107733E-02  0.00000000E+00  0.00000000E+00  0.00000000E+00
  0.00000000E+00  0.00000000E+00  0.00000000E+00  0.00000000E+00  0.00000000E+00
  0.00000000E+00  0.00000000E+00  0.00000000E+00  0.00000000E+00  0.00000000E+00
  0.00000000E+00  0.00000000E+00  0.00000000E+00  0.00000000E+00  0.00000000E+00
  2.13526735E-06  0.00000000E+00  0.00000000E+00  3.69839155E-06  0.00000000E+00
Beta MO coefficients                       R   N=         900
  4.17800043E-01  6.46698008E-01  1.35259095E-02 -4.30617816E-03  1.70261818E-03
 -1.17909510E-03  3.87767482E-04  0.00000000E+00  0.00000000E+00  0.00000000E+00
  0.00000000E+00  0.00000000E+00  0.00000000E+00  0.00000000E+00  0.00000000E+00
  0.00000000E+00  0.00000000E+00  0.00000000E+00  0.00000000E+00  0.00000000E+00
  0.00000000E+00  0.00000000E+00  0.00000000E+00  0.00000000E+00  0.00000000E+00
  5.57319453E-07  0.00000000E+00  0.00000000E+00  9.65305610E-07  0.00000000E+00
 -1.17072318E-01 -3.04802094E-01  5.38778940E-01  5.73023906E-01  5.01132408E-02
 -2.43398232E-02  7.40673847E-03  0.00000000E+00  0.00000000E+00  0.00000000E+00
  0.00000000E+00  0.00000000E+00  0.00000000E+00  0.00000000E+00  0.00000000E+00
  0.00000000E+00  0.00000000E+00  0.00000000E+00  0.00000000E+00  0.00000000E+00
  0.00000000E+00  0.00000000E+00  0.00000000E+00  0.00000000E+00  0.00000000E+00
  1.49052009E-05  0.00000000E+00  0.00000000E+00  2.58165653E-05  0.00000000E+00
  0.00000000E+00  0.00000000E+00  0.00000000E+00  0.00000000E+00  0.00000000E+00
  0.00000000E+00  0.00000000E+00 -2.29833340E-03  0.00000000E+00  0.00000000E+00
  4.02653538E-01  0.00000000E+00  0.00000000E+00  6.91318398E-01  0.00000000E+00
  0.00000000E+00  5.67479620E-02  0.00000000E+00  0.00000000E+00 -8.80865306E-03
  0.00000000E+00  0.00000000E+00  5.13608572E-03  0.00000000E+00  0.00000000E+00
  0.00000000E+00  0.00000000E+00  0.00000000E+00  0.00000000E+00  0.00000000E+00
  0.00000000E+00  0.00000000E+00  0.00000000E+00  0.00000000E+00  0.00000000E+00
  0.00000000E+00  0.00000000E+00  0.00000000E+00  0.00000000E+00 -2.29833340E-03
  0.00000000E+00  0.00000000E+00  4.02653538E-01  0.00000000E+00  0.00000000E+00
  6.91318398E-01  0.00000000E+00  0.00000000E+00  5.67479620E-02  0.00000000E+00
  0.00000000E+00 -8.80865306E-03  0.00000000E+00  0.00000000E+00  5.13608572E-03
  0.00000000E+00  0.00000000E+00  0.00000000E+00  0.00000000E+00  0.00000000E+00
  0.00000000E+00  0.00000000E+00  0.00000000E+00  0.00000000E+00  0.00000000E+00
  0.00000000E+00  0.00000000E+00  0.00000000E+00 -2.17256413E-03  0.00000000E+00
  0.00000000E+00  4.02992140E-01  0.00000000E+00  0.00000000E+00  6.91231840E-01
  0.00000000E+00  0.00000000E+00  5.61937454E-02  0.00000000E+00  0.00000000E+00
 -8.39993968E-03  0.00000000E+00  0.00000000E+00  4.87074876E-03  0.00000000E+00
  0.00000000E+00  0.00000000E+00  0.00000000E+00  0.00000000E+00  0.00000000E+00
  3.12462900E-02  8.61033198E-02 -1.98048603E-01 -3.25812037E-01  6.05133932E-01
  4.65006529E-01  1.15296529E-01  0.00000000E+00  0.00000000E+00  0.00000000E+00
  0.00000000E+00  0.00000000E+00  0.00000000E+00  0.00000000E+00  0.00000000E+00
  0.00000000E+00  0.00000000E+00  0.00000000E+00  0.00000000E+00  0.00000000E+00
  0.00000000E+00  0.00000000E+00  0.00000000E+00  0.00000000E+00  0.00000000E+00
 -3.62156477E-03  0.00000000E+00  0.00000000E+00 -6.27273419E-03  0.00000000E+00
  0.00000000E+00  0.00000000E+00  0.00000000E+00  0.00000000E+00  0.00000000E+00
  0.00000000E+00  0.00000000E+00  0.00000000E+00  1.16695222E+00  0.00000000E+00
  0.00000000E+00 -5.12940159E-02  0.00000000E+00  0.00000000E+00 -8.56619053E-02
  0.00000000E+00  0.00000000E+00  7.68258297E-02  0.00000000E+00  0.00000000E+00
  4.10867303E-01  0.00000000E+00  0.00000000E+00 -4.61476399E-01  0.00000000E+00
  0.00000000E+00  0.00000000E+00  0.00000000E+00  0.00000000E+00  0.00000000E+00
  0.00000000E+00  0.00000000E+00  0.00000000E+00  0.00000000E+00  0.00000000E+00
  0.00000000E+00  0.00000000E+00  0.00000000E+00  0.00000000E+00  1.30202024E+00
  0.00000000E+00  0.00000000E+00 -4.38316135E-02  0.00000000E+00  0.00000000E+00
 -7.18787878E-02  0.00000000E+00  0.00000000E+00  5.35501139E-02  0.00000000E+00
  0.00000000E+00  3.91868699E-01  0.00000000E+00  0.00000000E+00 -5.91334393E-01
  0.00000000E+00  0.00000000E+00  0.00000000E+00  0.00000000E+00  0.00000000E+00