fubar                                                                   
SP        RPBE1PBE                                                    6-311+G(d,p)        
Number of atoms                            I                1
Info1-9                                    I   N=           9
          11          10           0           0           0         110
           1          18       -1302
Full Title                                 C   N=           1
fubar       
Route                                      C   N=           3
#PBE1PBE/6-311+G(d,p) scf=tight     
Charge                                     I                3
Multiplicity                               I                1
Number of electrons                        I                2
Number of alpha electrons                  I                1
Number of beta electrons                   I                1
Number of basis functions                  I               22
Number of independent functions            I               22
Number of point charges in /Mol/           I                0
Number of translation vectors              I                0
Atomic numbers                             I   N=           1
           5
Nuclear charges                            R   N=           1
  5.00000000E+00
Current cartesian coordinates              R   N=           3
  0.00000000E+00  0.00000000E+00  0.00000000E+00
Number of symbols in /Mol/                 I                0
Int Atom Types                             I   N=           1
           0
Force Field                                I                0
Atom Types                                 C   N=           1
            
MM charges                                 R   N=           1
  0.00000000E+00
Integer atomic weights                     I   N=           1
          11
Real atomic weights                        R   N=           1
  1.10093053E+01
Atom fragment info                         I   N=           1
           0
Atom residue num                           I   N=           1
           0
Nuclear spins                              I   N=           1
           3
Nuclear ZEff                               R   N=           1
 -2.75000000E+00
Nuclear ZNuc                               R   N=           1
  5.00000000E+00
Nuclear QMom                               R   N=           1
  4.05900000E+00
Nuclear GFac                               R   N=           1
  2.68863700E+00
MicOpt                                     I   N=           1
          -1
Number of residues                         I                0
Number of secondary structures             I                0
SymInf integers                            I   N=          26
           1           8           1           1           1           1
          -1          -1          -1           1          -1          -1
          -1           1          -1          -1          -1          -1
           1           1           1          -1           1           1
           1          -1
RotTr to input orientation                 R   N=          12
  0.00000000E+00  0.00000000E+00 -1.00000000E+00  0.00000000E+00  1.00000000E+00
  0.00000000E+00  1.00000000E+00  0.00000000E+00  0.00000000E+00  0.00000000E+00
  0.00000000E+00  0.00000000E+00
Number of contracted shells                I                6
Number of primitive shells                 I               13
Pure/Cartesian d shells                    I                0
Pure/Cartesian f shells                    I                0
Highest angular momentum                   I                2
Largest degree of contraction              I                6
Shell types                                I   N=           6
           0          -1          -1          -1          -1          -2
Number of primitives per shell             I   N=           6
           6           3           1           1           1           1
Shell to atom map                          I   N=           6
           1           1           1           1           1           1
Primitive exponents                        R   N=          13
  2.85889000E+03  4.28140000E+02  9.75282000E+01  2.79693000E+01  8.21577000E+00
  1.11278000E+00  1.32415000E+01  3.00166000E+00  9.12856000E-01  3.15454000E-01
  9.88563000E-02  3.15000000E-02  4.01000000E-01
Contraction coefficients                   R   N=          13
  2.15374907E-03  1.65822928E-02  8.21869644E-02  2.76617880E-01  6.29315727E-01
  1.73769925E-01  1.17442942E-01  9.18001549E-01 -2.65104870E-03  1.00000000E+00
  1.00000000E+00  1.00000000E+00  1.00000000E+00
P(S=P) Contraction coefficients            R   N=          13
  0.00000000E+00  0.00000000E+00  0.00000000E+00  0.00000000E+00  0.00000000E+00
  0.00000000E+00  4.18099989E-02  2.36574994E-01  8.16213978E-01  1.00000000E+00
  1.00000000E+00  1.00000000E+00  0.00000000E+00
Coordinates of each shell                  R   N=          18
  0.00000000E+00  0.00000000E+00  0.00000000E+00  0.00000000E+00  0.00000000E+00
  0.00000000E+00  0.00000000E+00  0.00000000E+00  0.00000000E+00  0.00000000E+00
  0.00000000E+00  0.00000000E+00  0.00000000E+00  0.00000000E+00  0.00000000E+00
  0.00000000E+00  0.00000000E+00  0.00000000E+00
Num ILSW                                   I              100
ILSW                                       I   N=         100
           0           0           0           0           2           0
           0           0           0           0        1009          -1
           5           0           0           0           0           0
           0           0           0           0           0           0
           1           0           0           0           0           0
           0           0      100000           0          -1           0
           0           0           0           0           0           0
           0           0           0           1           0           0
           0 -2000000000           1           0           0           0
           0           0           4          52           0           0
           0           0          13           0           0           0
           0           0           0           1           0           1
           0           0           0           0           0           0
           0           0           0           0           0           0
           0           0           0           0           0           0
           0           0           0           0           0           0
           0           0           0           0
Num RLSW                                   I               52
RLSW                                       R   N=          52
  7.50000000E-01  7.50000000E-01  1.00000000E+00  1.00000000E+00  2.50000000E-01
  0.00000000E+00  0.00000000E+00  1.00000000E+00  0.00000000E+00  0.00000000E+00
  0.00000000E+00  0.00000000E+00  1.00000000E+00  0.00000000E+00  0.00000000E+00
  0.00000000E+00  0.00000000E+00  1.00000000E+00  0.00000000E+00  0.00000000E+00
  0.00000000E+00  0.00000000E+00  1.00000000E+00  0.00000000E+00  0.00000000E+00
  0.00000000E+00  0.00000000E+00  1.00000000E+00  0.00000000E+00  0.00000000E+00
  0.00000000E+00  0.00000000E+00  1.00000000E+00  0.00000000E+00  0.00000000E+00
  0.00000000E+00  0.00000000E+00  0.00000000E+00  1.00000000E+00  1.00000000E+00
  0.00000000E+00  1.00000000E+00  0.00000000E+00  0.00000000E+00  0.00000000E+00
  0.00000000E+00  0.00000000E+00  0.00000000E+00  0.00000000E+00  0.00000000E+00
  0.00000000E+00  0.00000000E+00
MxBond                                     I                1
NBond                                      I   N=           1
           0
IBond                                      I   N=           1
           0
RBond                                      R   N=           1
  0.00000000E+00
Virial Ratio                               R      2.001871843393363E+00
SCF Energy                                 R     -2.199285755154265E+01
Total Energy                               R     -2.199285755154265E+01
RMS Density                                R      1.077710176431122E-09
Job Status                                 I                1
Nuclear derivative order                   I                0
External E-field                           R   N=          35
  0.00000000E+00  0.00000000E+00  0.00000000E+00  0.00000000E+00  0.00000000E+00
  0.00000000E+00  0.00000000E+00  0.00000000E+00  0.00000000E+00  0.00000000E+00
  0.00000000E+00  0.00000000E+00  0.00000000E+00  0.00000000E+00  0.00000000E+00
  0.00000000E+00  0.00000000E+00  0.00000000E+00  0.00000000E+00  0.00000000E+00
  0.00000000E+00  0.00000000E+00  0.00000000E+00  0.00000000E+00  0.00000000E+00
  0.00000000E+00  0.00000000E+00  0.00000000E+00  0.00000000E+00  0.00000000E+00
  0.00000000E+00  0.00000000E+00  0.00000000E+00  0.00000000E+00  0.00000000E+00
IOpCl                                      I                0
IROHF                                      I                0
Alpha Orbital Energies                     R   N=          22
 -8.76508364E+00 -1.49237253E+00 -1.30250207E+00 -1.30250207E+00 -1.30250207E+00
 -5.91391755E-01 -5.40746821E-01 -5.40746821E-01 -5.40746821E-01 -3.02072980E-01
 -2.94345815E-01 -2.94345815E-01 -2.94345815E-01 -2.51571951E-01 -2.51571951E-01
 -2.51571951E-01 -2.51571951E-01 -2.51571951E-01  5.10881657E-01  5.10881657E-01
  5.10881657E-01  1.20612168E+01
Alpha MO coefficients                      R   N=         484
  5.82638471E-01  4.53691719E-01  0.00000000E+00  0.00000000E+00  0.00000000E+00
  1.56286867E-03  0.00000000E+00  0.00000000E+00  0.00000000E+00 -1.54014248E-03
  0.00000000E+00  0.00000000E+00  0.00000000E+00  5.89678868E-04  0.00000000E+00
  0.00000000E+00  0.00000000E+00  1.46666359E-16  0.00000000E+00  0.00000000E+00
 -2.66993844E-17  0.00000000E+00 -1.69666881E-01 -2.42372382E-01  0.00000000E+00
  0.00000000E+00  0.00000000E+00  1.02512750E+00  0.00000000E+00  0.00000000E+00
  0.00000000E+00  6.34940196E-02  0.00000000E+00  0.00000000E+00  0.00000000E+00
  1.50205039E-02  0.00000000E+00  0.00000000E+00  0.00000000E+00  1.23625100E-15
  0.00000000E+00  0.00000000E+00  4.23853703E-16  0.00000000E+00  0.00000000E+00
  0.00000000E+00  5.42149192E-01  0.00000000E+00  0.00000000E+00  0.00000000E+00
  5.17697565E-01  0.00000000E+00  0.00000000E+00  0.00000000E+00  7.59687482E-02
  0.00000000E+00  0.00000000E+00  0.00000000E+00 -7.89808355E-03  0.00000000E+00
  0.00000000E+00  0.00000000E+00  0.00000000E+00  0.00000000E+00  0.00000000E+00
  0.00000000E+00  0.00000000E+00  0.00000000E+00  0.00000000E+00  0.00000000E+00
  5.42149192E-01  0.00000000E+00  0.00000000E+00  0.00000000E+00  5.17697565E-01
  0.00000000E+00  0.00000000E+00  0.00000000E+00  7.59687482E-02  0.00000000E+00
  0.00000000E+00  0.00000000E+00 -7.89808355E-03  0.00000000E+00  0.00000000E+00
  0.00000000E+00  0.00000000E+00  0.00000000E+00  0.00000000E+00  0.00000000E+00
  0.00000000E+00  5.42149192E-01  0.00000000E+00  0.00000000E+00  0.00000000E+00
  5.17697565E-01  0.00000000E+00  0.00000000E+00  0.00000000E+00  7.59687482E-02
  0.00000000E+00  0.00000000E+00  0.00000000E+00 -7.89808355E-03  0.00000000E+00
  0.00000000E+00  0.00000000E+00  0.00000000E+00  0.00000000E+00  0.00000000E+00
 -8.50955209E-02 -1.37186407E-01  0.00000000E+00  0.00000000E+00  0.00000000E+00
  1.14848129E+00  0.00000000E+00  0.00000000E+00  0.00000000E+00 -1.01847272E+00
  0.00000000E+00  0.00000000E+00  0.00000000E+00 -4.87454029E-01  0.00000000E+00
  0.00000000E+00  0.00000000E+00  2.10987422E-15  0.00000000E+00  0.00000000E+00
  9.85880574E-16  0.00000000E+00  0.00000000E+00  0.00000000E+00 -3.31155438E-01
  0.00000000E+00  0.00000000E+00  0.00000000E+00 -2.91907148E-01  0.00000000E+00
  0.00000000E+00  0.00000000E+00  9.37747307E-01  0.00000000E+00  0.00000000E+00
  0.00000000E+00  2.39846459E-01  0.00000000E+00  0.00000000E+00  0.00000000E+00
  0.00000000E+00  0.00000000E+00  0.00000000E+00  0.00000000E+00  0.00000000E+00
  0.00000000E+00  0.00000000E+00 -3.31155438E-01  0.00000000E+00  0.00000000E+00
  0.00000000E+00 -2.91907148E-01  0.00000000E+00  0.00000000E+00  0.00000000E+00
  9.37747307E-01  0.00000000E+00  0.00000000E+00  0.00000000E+00  2.39846459E-01
  0.00000000E+00  0.00000000E+00  0.00000000E+00  0.00000000E+00  0.00000000E+00
  0.00000000E+00  0.00000000E+00  0.00000000E+00  0.00000000E+00  0.00000000E+00
 -3.31155438E-01  0.00000000E+00  0.00000000E+00  0.00000000E+00 -2.91907148E-01
  0.00000000E+00  0.00000000E+00  0.00000000E+00  9.37747307E-01  0.00000000E+00
  0.00000000E+00  0.00000000E+00  2.39846459E-01  0.00000000E+00  0.00000000E+00
  0.00000000E+00  0.00000000E+00  0.00000000E+00  7.24092902E-02  1.24366621E-01
  0.00000000E+00  0.00000000E+00  0.00000000E+00 -1.36452515E+00  0.00000000E+00
  0.00000000E+00  0.00000000E+00  2.64699915E+00  0.00000000E+00  0.00000000E+00
  0.00000000E+00 -1.84262843E+00  0.00000000E+00  0.00000000E+00  0.00000000E+00
 -1.94921139E-14  0.00000000E+00  0.00000000E+00 -5.47795159E-15  0.00000000E+00
  0.00000000E+00  0.00000000E+00  2.47429252E-01  0.00000000E+00  0.00000000E+00
  0.00000000E+00  1.99619570E-01  0.00000000E+00  0.00000000E+00  0.00000000E+00
 -1.26772210E+00  0.00000000E+00  0.00000000E+00  0.00000000E+00  1.38212304E+00
  0.00000000E+00  0.00000000E+00  0.00000000E+00  0.00000000E+00  0.00000000E+00
  0.00000000E+00  0.00000000E+00  0.00000000E+00  0.00000000E+00  0.00000000E+00
  2.47429252E-01  0.00000000E+00  0.00000000E+00  0.00000000E+00  1.99619570E-01
  0.00000000E+00  0.00000000E+00  0.00000000E+00 -1.26772210E+00  0.00000000E+00
  0.00000000E+00  0.00000000E+00  1.38212304E+00  0.00000000E+00  0.00000000E+00
  0.00000000E+00  0.00000000E+00  0.00000000E+00  0.00000000E+00  0.00000000E+00
  0.00000000E+00  0.00000000E+00  0.00000000E+00  2.47429252E-01  0.00000000E+00
  0.00000000E+00  0.00000000E+00  1.99619570E-01  0.00000000E+00  0.00000000E+00
  0.00000000E+00 -1.26772210E+00  0.00000000E+00  0.00000000E+00  0.00000000E+00
  1.38212304E+00  0.00000000E+00  0.00000000E+00  0.00000000E+00  0.00000000E+00
  0.00000000E+00  0.00000000E+00  0.00000000E+00  0.00000000E+00  0.00000000E+00
  0.00000000E+00  0.00000000E+00  0.00000000E+00  0.00000000E+00  0.00000000E+00
  0.00000000E+00  0.00000000E+00  0.00000000E+00  0.00000000E+00  0.00000000E+00
  0.00000000E+00  0.00000000E+00  0.00000000E+00  0.00000000E+00  0.00000000E+00
  0.00000000E+00  0.00000000E+00  1.00000000E+00  0.00000000E+00  0.00000000E+00
  0.00000000E+00  0.00000000E+00  0.00000000E+00  0.00000000E+00  0.00000000E+00
  0.00000000E+00  0.00000000E+00  0.00000000E+00  0.00000000E+00  0.00000000E+00
  0.00000000E+00  0.00000000E+00  0.00000000E+00  0.00000000E+00  0.00000000E+00
  0.00000000E+00  1.00000000E+00  0.00000000E+00  0.00000000E+00  0.00000000E+00
  0.00000000E+00  0.00000000E+00  0.00000000E+00  0.00000000E+00  0.00000000E+00
  0.00000000E+00  0.00000000E+00  0.00000000E+00  0.00000000E+00  0.00000000E+00
  0.00000000E+00  0.00000000E+00  0.00000000E+00  0.00000000E+00  0.00000000E+00
  0.00000000E+00  0.00000000E+00  0.00000000E+00  0.00000000E+00  1.00000000E+00
  0.00000000E+00  0.00000000E+00 -5.30077818E-16 -6.80830633E-16  0.00000000E+00
  0.00000000E+00  0.00000000E+00  7.04705926E-15  0.00000000E+00  0.00000000E+00
  0.00000000E+00 -1.32104108E-14  0.00000000E+00  0.00000000E+00  0.00000000E+00
  8.92497242E-15  0.00000000E+00  0.00000000E+00  0.00000000E+00 -4.77447225E-01
  0.00000000E+00  0.00000000E+00  8.78660428E-01  0.00000000E+00  1.97128531E-15
  2.91410636E-15  0.00000000E+00  0.00000000E+00  0.00000000E+00 -3.12294004E-14
  0.00000000E+00  0.00000000E+00  0.00000000E+00  5.59196166E-14  0.00000000E+00
  0.00000000E+00  0.00000000E+00 -3.59149547E-14  0.00000000E+00  0.00000000E+00
  0.00000000E+00  8.78660428E-01  0.00000000E+00  0.00000000E+00  4.77447225E-01
  0.00000000E+00  0.00000000E+00  0.00000000E+00  0.00000000E+00 -1.24433529E+00
  0.00000000E+00  0.00000000E+00  0.00000000E+00  1.88533212E+00  0.00000000E+00
  0.00000000E+00  0.00000000E+00 -1.31945751E+00  0.00000000E+00  0.00000000E+00
  0.00000000E+00  5.07981326E-01  0.00000000E+00  0.00000000E+00  0.00000000E+00
  0.00000000E+00  0.00000000E+00  0.00000000E+00  0.00000000E+00  0.00000000E+00
  0.00000000E+00  0.00000000E+00 -1.24433529E+00  0.00000000E+00  0.00000000E+00
  0.00000000E+00  1.88533212E+00  0.00000000E+00  0.00000000E+00  0.00000000E+00
 -1.31945751E+00  0.00000000E+00  0.00000000E+00  0.00000000E+00  5.07981326E-01
  0.00000000E+00  0.00000000E+00  0.00000000E+00  0.00000000E+00  0.00000000E+00
  0.00000000E+00  0.00000000E+00 -1.24433529E+00  0.00000000E+00  0.00000000E+00
  0.00000000E+00  1.88533212E+00  0.00000000E+00  0.00000000E+00  0.00000000E+00
 -1.31945751E+00  0.00000000E+00  0.00000000E+00  0.00000000E+00  5.07981326E-01
  0.00000000E+00  0.00000000E+00  0.00000000E+00  0.00000000E+00  0.00000000E+00
  0.00000000E+00  0.00000000E+00 -1.88305870E+00  2.07116416E+00  0.00000000E+00
  0.00000000E+00  0.00000000E+00 -5.66405100E-01  0.00000000E+00  0.00000000E+00
  0.00000000E+00  4.52215012E-01  0.00000000E+00  0.00000000E+00  0.00000000E+00
 -1.63624488E-01  0.00000000E+00  0.00000000E+00  0.00000000E+00  1.32227112E-16
  0.00000000E+00  0.00000000E+00 -3.94366179E-17  0.00000000E+00
Orthonormal basis                          R   N=         484
  2.20797284E-01  2.44739916E-01  0.00000000E+00  0.00000000E+00  0.00000000E+00
  3.17216832E-01  0.00000000E+00  0.00000000E+00  0.00000000E+00  3.16446712E-01
  0.00000000E+00  0.00000000E+00  0.00000000E+00  2.52983204E-01  0.00000000E+00
  0.00000000E+00  0.00000000E+00 -2.09373514E-17  0.00000000E+00  0.00000000E+00
  2.09373514E-17  0.00000000E+00  4.61749599E-01  4.38802802E-01  0.00000000E+00
  0.00000000E+00  0.00000000E+00 -8.86709436E-02  0.00000000E+00  0.00000000E+00
  0.00000000E+00 -3.00746831E-01  0.00000000E+00  0.00000000E+00  0.00000000E+00
 -3.40130709E-01  0.00000000E+00  0.00000000E+00  0.00000000E+00  5.43865477E-17
  0.00000000E+00  0.00000000E+00 -5.43865477E-17  0.00000000E+00 -3.92746622E-30
  8.46277571E-30  0.00000000E+00  0.00000000E+00  0.00000000E+00 -2.42746860E-29
  0.00000000E+00  0.00000000E+00  0.00000000E+00  3.75975048E-29  0.00000000E+00
  0.00000000E+00  0.00000000E+00 -2.13795293E-29  0.00000000E+00  0.00000000E+00
  0.00000000E+00  7.07106781E-01  0.00000000E+00  0.00000000E+00  7.07106781E-01
  0.00000000E+00 -4.03063233E-17 -3.32192766E-17  0.00000000E+00  0.00000000E+00
  0.00000000E+00  7.13922023E-17  0.00000000E+00  0.00000000E+00  0.00000000E+00
 -4.29448159E-17  0.00000000E+00  0.00000000E+00  0.00000000E+00  1.49290556E-16
  0.00000000E+00  0.00000000E+00  0.00000000E+00  7.07106781E-01  0.00000000E+00
  0.00000000E+00 -7.07106781E-01  0.00000000E+00 -3.68459642E-01 -8.05597253E-02
  0.00000000E+00  0.00000000E+00  0.00000000E+00  9.76905517E-01  0.00000000E+00
  0.00000000E+00  0.00000000E+00  9.10528333E-02  0.00000000E+00  0.00000000E+00
  0.00000000E+00 -9.39323918E-01  0.00000000E+00  0.00000000E+00  0.00000000E+00
  4.01489061E-17  0.00000000E+00  0.00000000E+00 -4.01489061E-17  0.00000000E+00
 -1.76988531E+00  1.82655534E+00  0.00000000E+00  0.00000000E+00  0.00000000E+00
  8.31502523E-02  0.00000000E+00  0.00000000E+00  0.00000000E+00 -7.05353029E-01
  0.00000000E+00  0.00000000E+00  0.00000000E+00  5.55708261E-01  0.00000000E+00
  0.00000000E+00  0.00000000E+00 -9.02899546E-17  0.00000000E+00  0.00000000E+00
  9.02899546E-17  0.00000000E+00 -6.29625441E-01  9.96668901E-01  0.00000000E+00
  0.00000000E+00  0.00000000E+00 -1.86625141E+00  0.00000000E+00  0.00000000E+00
  0.00000000E+00  2.74882207E+00  0.00000000E+00  0.00000000E+00  0.00000000E+00
 -1.51296378E+00  0.00000000E+00  0.00000000E+00  0.00000000E+00  3.33589587E-16
  0.00000000E+00  0.00000000E+00 -3.33589587E-16  0.00000000E+00  0.00000000E+00
  0.00000000E+00  0.00000000E+00  0.00000000E+00  0.00000000E+00  0.00000000E+00
  0.00000000E+00  0.00000000E+00  0.00000000E+00  0.00000000E+00  0.00000000E+00
  0.00000000E+00  0.00000000E+00  0.00000000E+00  0.00000000E+00  0.00000000E+00
  0.00000000E+00  0.00000000E+00  0.00000000E+00  0.00000000E+00  0.00000000E+00
  1.00000000E+00  0.00000000E+00  0.00000000E+00  0.00000000E+00  0.00000000E+00
  0.00000000E+00  0.00000000E+00  0.00000000E+00  0.00000000E+00  0.00000000E+00
  0.00000000E+00  0.00000000E+00  0.00000000E+00  0.00000000E+00  0.00000000E+00
  0.00000000E+00  0.00000000E+00  0.00000000E+00  0.00000000E+00  1.00000000E+00
  0.00000000E+00  0.00000000E+00  0.00000000E+00  0.00000000E+00  0.00000000E+00
  0.00000000E+00  0.00000000E+00  0.00000000E+00  0.00000000E+00  0.00000000E+00
  0.00000000E+00  0.00000000E+00  0.00000000E+00  0.00000000E+00  0.00000000E+00
  0.00000000E+00  0.00000000E+00  0.00000000E+00  0.00000000E+00  0.00000000E+00
  0.00000000E+00  0.00000000E+00  1.00000000E+00  0.00000000E+00  0.00000000E+00
  0.00000000E+00  0.00000000E+00  0.00000000E+00  0.00000000E+00  2.64713356E-01
  0.00000000E+00  0.00000000E+00  0.00000000E+00  3.73230619E-01  0.00000000E+00
  0.00000000E+00  0.00000000E+00  3.78748627E-01  0.00000000E+00  0.00000000E+00
  0.00000000E+00  2.77688075E-01  0.00000000E+00  0.00000000E+00  0.00000000E+00
  0.00000000E+00  0.00000000E+00  0.00000000E+00  0.00000000E+00  0.00000000E+00
  0.00000000E+00  5.99191960E-01  0.00000000E+00  0.00000000E+00  0.00000000E+00
  3.04989471E-01  0.00000000E+00  0.00000000E+00  0.00000000E+00 -2.96244438E-01
  0.00000000E+00  0.00000000E+00  0.00000000E+00 -5.77062410E-01  0.00000000E+00
  0.00000000E+00  0.00000000E+00  0.00000000E+00  0.00000000E+00  0.00000000E+00
  0.00000000E+00  0.00000000E+00  0.00000000E+00  9.03407945E-01  0.00000000E+00
  0.00000000E+00  0.00000000E+00 -6.90520022E-01  0.00000000E+00  0.00000000E+00
  0.00000000E+00 -5.95121495E-01  0.00000000E+00  0.00000000E+00  0.00000000E+00
  8.78613588E-01  0.00000000E+00  0.00000000E+00  0.00000000E+00  0.00000000E+00
  0.00000000E+00  0.00000000E+00  0.00000000E+00  0.00000000E+00  0.00000000E+00
  8.76316808E-01  0.00000000E+00  0.00000000E+00  0.00000000E+00 -1.79955777E+00
  0.00000000E+00  0.00000000E+00  0.00000000E+00  1.90993398E+00  0.00000000E+00
  0.00000000E+00  0.00000000E+00 -1.02167720E+00  0.00000000E+00  0.00000000E+00
  0.00000000E+00  0.00000000E+00  0.00000000E+00  0.00000000E+00  0.00000000E+00
  0.00000000E+00  2.64713356E-01  0.00000000E+00  0.00000000E+00  0.00000000E+00
  3.73230619E-01  0.00000000E+00  0.00000000E+00  0.00000000E+00  3.78748627E-01
  0.00000000E+00  0.00000000E+00  0.00000000E+00  2.77688075E-01  0.00000000E+00
  0.00000000E+00  0.00000000E+00  0.00000000E+00  0.00000000E+00  0.00000000E+00
  0.00000000E+00  0.00000000E+00  0.00000000E+00  5.99191960E-01  0.00000000E+00
  0.00000000E+00  0.00000000E+00  3.04989471E-01  0.00000000E+00  0.00000000E+00
  0.00000000E+00 -2.96244438E-01  0.00000000E+00  0.00000000E+00  0.00000000E+00
 -5.77062410E-01  0.00000000E+00  0.00000000E+00  0.00000000E+00  0.00000000E+00
  0.00000000E+00  0.00000000E+00  0.00000000E+00  0.00000000E+00  0.00000000E+00
  9.03407945E-01  0.00000000E+00  0.00000000E+00  0.00000000E+00 -6.90520022E-01
  0.00000000E+00  0.00000000E+00  0.00000000E+00 -5.95121495E-01  0.00000000E+00
  0.00000000E+00  0.00000000E+00  8.78613588E-01  0.00000000E+00  0.00000000E+00
  0.00000000E+00  0.00000000E+00  0.00000000E+00  0.00000000E+00  0.00000000E+00
  0.00000000E+00  0.00000000E+00  8.76316808E-01  0.00000000E+00  0.00000000E+00
  0.00000000E+00 -1.79955777E+00  0.00000000E+00  0.00000000E+00  0.00000000E+00
  1.90993398E+00  0.00000000E+00  0.00000000E+00  0.00000000E+00 -1.02167720E+00
  0.00000000E+00  0.00000000E+00  0.00000000E+00  0.00000000E+00  0.00000000E+00
  0.00000000E+00  0.00000000E+00  0.00000000E+00  2.64713356E-01  0.00000000E+00
  0.00000000E+00  0.00000000E+00  3.73230619E-01  0.00000000E+00  0.00000000E+00
  0.00000000E+00  3.78748627E-01  0.00000000E+00  0.00000000E+00  0.00000000E+00
  2.77688075E-01  0.00000000E+00  0.00000000E+00  0.00000000E+00  0.00000000E+00
  0.00000000E+00  0.00000000E+00  0.00000000E+00  0.00000000E+00  0.00000000E+00
  5.99191960E-01  0.00000000E+00  0.00000000E+00  0.00000000E+00  3.04989471E-01
  0.00000000E+00  0.00000000E+00  0.00000000E+00 -2.96244438E-01  0.00000000E+00
  0.00000000E+00  0.00000000E+00 -5.77062410E-01  0.00000000E+00  0.00000000E+00
  0.00000000E+00  0.00000000E+00  0.00000000E+00  0.00000000E+00  0.00000000E+00
  0.00000000E+00  0.00000000E+00  9.03407945E-01  0.00000000E+00  0.00000000E+00
  0.00000000E+00 -6.90520022E-01  0.00000000E+00  0.00000000E+00  0.00000000E+00
 -5.95121495E-01  0.00000000E+00  0.00000000E+00  0.00000000E+00  8.78613588E-01
  0.00000000E+00  0.00000000E+00  0.00000000E+00  0.00000000E+00  0.00000000E+00
  0.00000000E+00  0.00000000E+00  0.00000000E+00  0.00000000E+00  8.76316808E-01
  0.00000000E+00  0.00000000E+00  0.00000000E+00 -1.79955777E+00  0.00000000E+00
  0.00000000E+00  0.00000000E+00  1.90993398E+00  0.00000000E+00  0.00000000E+00
  0.00000000E+00 -1.02167720E+00  0.00000000E+00  0.00000000E+00  0.00000000E+00
  0.00000000E+00  0.00000000E+00  0.00000000E+00  0.00000000E+00
Total SCF Density                          R   N=         253
  6.78935176E-01  5.28676499E-01  4.11672352E-01  0.00000000E+00  0.00000000E+00
  0.00000000E+00  0.00000000E+00  0.00000000E+00  0.00000000E+00  0.00000000E+00
  0.00000000E+00  0.00000000E+00  0.00000000E+00  0.00000000E+00  0.00000000E+00
  1.82117482E-03  1.41812115E-03  0.00000000E+00  0.00000000E+00  0.00000000E+00
  4.88511696E-06  0.00000000E+00  0.00000000E+00  0.00000000E+00  0.00000000E+00
  0.00000000E+00  0.00000000E+00  0.00000000E+00  0.00000000E+00  0.00000000E+00
  0.00000000E+00  0.00000000E+00  0.00000000E+00  0.00000000E+00  0.00000000E+00
  0.00000000E+00  0.00000000E+00  0.00000000E+00  0.00000000E+00  0.00000000E+00
  0.00000000E+00  0.00000000E+00  0.00000000E+00  0.00000000E+00  0.00000000E+00
 -1.79469252E-03 -1.39749978E-03  0.00000000E+00  0.00000000E+00  0.00000000E+00
 -4.81408086E-06  0.00000000E+00  0.00000000E+00  0.00000000E+00  4.74407772E-06
  0.00000000E+00  0.00000000E+00  0.00000000E+00  0.00000000E+00  0.00000000E+00
  0.00000000E+00  0.00000000E+00  0.00000000E+00  0.00000000E+00  0.00000000E+00
  0.00000000E+00  0.00000000E+00  0.00000000E+00  0.00000000E+00  0.00000000E+00
  0.00000000E+00  0.00000000E+00  0.00000000E+00  0.00000000E+00  0.00000000E+00
  0.00000000E+00  0.00000000E+00  0.00000000E+00  0.00000000E+00  0.00000000E+00
  0.00000000E+00  0.00000000E+00  0.00000000E+00  0.00000000E+00  0.00000000E+00
  0.00000000E+00  0.00000000E+00  0.00000000E+00  0.00000000E+00  0.00000000E+00
  0.00000000E+00  6.87139188E-04  5.35064839E-04  0.00000000E+00  0.00000000E+00
  0.00000000E+00  1.84318126E-06  0.00000000E+00  0.00000000E+00  0.00000000E+00
 -1.81637895E-06  0.00000000E+00  0.00000000E+00  0.00000000E+00  6.95442335E-07
  0.00000000E+00  0.00000000E+00  0.00000000E+00  0.00000000E+00  0.00000000E+00
  0.00000000E+00  0.00000000E+00  0.00000000E+00  0.00000000E+00  0.00000000E+00
  0.00000000E+00  0.00000000E+00  0.00000000E+00  0.00000000E+00  0.00000000E+00
  0.00000000E+00  0.00000000E+00  0.00000000E+00  0.00000000E+00  0.00000000E+00
  0.00000000E+00  0.00000000E+00  0.00000000E+00  0.00000000E+00  0.00000000E+00
  0.00000000E+00  0.00000000E+00  0.00000000E+00  0.00000000E+00  0.00000000E+00
  0.00000000E+00  0.00000000E+00  0.00000000E+00  0.00000000E+00  0.00000000E+00
  0.00000000E+00  0.00000000E+00  0.00000000E+00  0.00000000E+00  0.00000000E+00
  0.00000000E+00  0.00000000E+00  0.00000000E+00  0.00000000E+00  0.00000000E+00
  0.00000000E+00  0.00000000E+00  0.00000000E+00 -6.76215403E-33 -3.63786767E-33
  0.00000000E+00  0.00000000E+00  0.00000000E+00 -8.86061520E-36  0.00000000E+00
  0.00000000E+00  0.00000000E+00  3.79501821E-35  0.00000000E+00  0.00000000E+00
  0.00000000E+00 -3.34362838E-36  0.00000000E+00  0.00000000E+00  0.00000000E+00
  2.22238780E-32  2.75416346E-34  2.14462521E-34  0.00000000E+00  0.00000000E+00
  0.00000000E+00  7.38776446E-37  0.00000000E+00  0.00000000E+00  0.00000000E+00
 -7.28033653E-37  0.00000000E+00  0.00000000E+00  0.00000000E+00  2.78744380E-37
  0.00000000E+00  0.00000000E+00  0.00000000E+00  3.20495770E-49  1.25897796E-63
 -1.52276761E-33 -1.18575599E-33  0.00000000E+00  0.00000000E+00  0.00000000E+00
 -4.08466985E-36  0.00000000E+00  0.00000000E+00  0.00000000E+00  4.02527331E-36
  0.00000000E+00  0.00000000E+00  0.00000000E+00 -1.54116820E-36  0.00000000E+00
  0.00000000E+00  0.00000000E+00 -6.08500752E-49  5.12391874E-65  1.51673756E-63
  1.03780709E-33 -1.70496880E-33  0.00000000E+00  0.00000000E+00  0.00000000E+00
 -4.34350067E-36  0.00000000E+00  0.00000000E+00  0.00000000E+00  6.08090094E-36
  0.00000000E+00  0.00000000E+00  0.00000000E+00 -1.15826685E-36  0.00000000E+00
  0.00000000E+00  0.00000000E+00  0.00000000E+00 -2.45232896E-49 -1.98918332E-49
  2.22238780E-32  2.00778412E-33  1.56343097E-33  0.00000000E+00  0.00000000E+00
  0.00000000E+00  5.38567749E-36  0.00000000E+00  0.00000000E+00  0.00000000E+00
 -5.30736257E-36  0.00000000E+00  0.00000000E+00  0.00000000E+00  2.03204547E-36
  0.00000000E+00  0.00000000E+00  0.00000000E+00  7.03415697E-50  3.15775231E-65
 -5.04769008E-66  2.41203330E-48  1.54723473E-63
Mulliken Charges                           R   N=           1
  3.00000000E+00
ONIOM Charges                              I   N=          16
           3           0           0           0           0           0
           0           0           0           0           0           0
           0           0           0           0
ONIOM Multiplicities                       I   N=          16
           1           0           0           0           0           0
           0           0           0           0           0           0
           0           0           0           0