fubar                                                                   
SP        UPBE1PBE                                                    6-311+G(d,p)        
Number of atoms                            I                1
Info1-9                                    I   N=           9
          11          10           0           0           0         110
           1          18       -1302
Full Title                                 C   N=           1
fubar       
Route                                      C   N=           3
#PBE1PBE/6-311+G(d,p) scf=tight     
Charge                                     I               -2
Multiplicity                               I                2
Number of electrons                        I               11
Number of alpha electrons                  I                6
Number of beta electrons                   I                5
Number of basis functions                  I               22
Number of independent functions            I               22
Number of point charges in /Mol/           I                0
Number of translation vectors              I                0
Atomic numbers                             I   N=           1
           9
Nuclear charges                            R   N=           1
  9.00000000E+00
Current cartesian coordinates              R   N=           3
  0.00000000E+00  0.00000000E+00  0.00000000E+00
Number of symbols in /Mol/                 I                0
Int Atom Types                             I   N=           1
           0
Force Field                                I                0
Atom Types                                 C   N=           1
            
MM charges                                 R   N=           1
  0.00000000E+00
Integer atomic weights                     I   N=           1
          19
Real atomic weights                        R   N=           1
  1.89984032E+01
Atom fragment info                         I   N=           1
           0
Atom residue num                           I   N=           1
           0
Nuclear spins                              I   N=           1
           1
Nuclear ZEff                               R   N=           1
 -6.75000000E+00
Nuclear ZNuc                               R   N=           1
  9.00000000E+00
Nuclear QMom                               R   N=           1
  0.00000000E+00
Nuclear GFac                               R   N=           1
  2.62886700E+00
MicOpt                                     I   N=           1
          -1
Number of residues                         I                0
Number of secondary structures             I                0
SymInf integers                            I   N=          26
           1           8           1           1           1           1
          -1          -1          -1           1          -1          -1
          -1           1          -1          -1          -1          -1
           1           1           1          -1           1           1
           1          -1
RotTr to input orientation                 R   N=          12
  0.00000000E+00  0.00000000E+00 -1.00000000E+00  0.00000000E+00  1.00000000E+00
  0.00000000E+00  1.00000000E+00  0.00000000E+00  0.00000000E+00  0.00000000E+00
  0.00000000E+00  0.00000000E+00
Number of contracted shells                I                6
Number of primitive shells                 I               13
Pure/Cartesian d shells                    I                0
Pure/Cartesian f shells                    I                0
Highest angular momentum                   I                2
Largest degree of contraction              I                6
Shell types                                I   N=           6
           0          -1          -1          -1          -1          -2
Number of primitives per shell             I   N=           6
           6           3           1           1           1           1
Shell to atom map                          I   N=           6
           1           1           1           1           1           1
Primitive exponents                        R   N=          13
  1.14271000E+04  1.72235000E+03  3.95746000E+02  1.15139000E+02  3.36026000E+01
  4.91901000E+00  5.54441000E+01  1.26323000E+01  3.71756000E+00  1.16545000E+00
  3.21892000E-01  1.07600000E-01  1.75000000E+00
Contraction coefficients                   R   N=          13
  1.80093016E-03  1.37419012E-02  6.81334059E-02  2.33325020E-01  5.89086051E-01
  2.99505026E-01  1.14536016E-01  9.20512125E-01 -3.37804046E-03  1.00000000E+00
  1.00000000E+00  1.00000000E+00  1.00000000E+00
P(S=P) Contraction coefficients            R   N=          13
  0.00000000E+00  0.00000000E+00  0.00000000E+00  0.00000000E+00  0.00000000E+00
  0.00000000E+00  3.54608874E-02  2.37450915E-01  8.20457708E-01  1.00000000E+00
  1.00000000E+00  1.00000000E+00  0.00000000E+00
Coordinates of each shell                  R   N=          18
  0.00000000E+00  0.00000000E+00  0.00000000E+00  0.00000000E+00  0.00000000E+00
  0.00000000E+00  0.00000000E+00  0.00000000E+00  0.00000000E+00  0.00000000E+00
  0.00000000E+00  0.00000000E+00  0.00000000E+00  0.00000000E+00  0.00000000E+00
  0.00000000E+00  0.00000000E+00  0.00000000E+00
Num ILSW                                   I              100
ILSW                                       I   N=         100
           1           0           0           0           2           0
           0           0           0           0        1009          -1
           5           0           0           0           0           0
           0           0           0           0           0           0
           1           0           0           0           0           0
           0           0      100000           0          -1           0
           0           0           0           0           0           0
           0           0           0           1           0           0
           0 -2000000000           1           0           0           0
           0           0           4          52           0           0
           0           0          13           0           0           0
           0           0           0           1           0           1
           0           0           0           0           0           0
           0           0           0           0           0           0
           0           0           0           0           0           0
           0           0           0           0           0           0
           0           0           0           0
Num RLSW                                   I               52
RLSW                                       R   N=          52
  7.50000000E-01  7.50000000E-01  1.00000000E+00  1.00000000E+00  2.50000000E-01
  0.00000000E+00  0.00000000E+00  1.00000000E+00  0.00000000E+00  0.00000000E+00
  0.00000000E+00  0.00000000E+00  1.00000000E+00  0.00000000E+00  0.00000000E+00
  0.00000000E+00  0.00000000E+00  1.00000000E+00  0.00000000E+00  0.00000000E+00
  0.00000000E+00  0.00000000E+00  1.00000000E+00  0.00000000E+00  0.00000000E+00
  0.00000000E+00  0.00000000E+00  1.00000000E+00  0.00000000E+00  0.00000000E+00
  0.00000000E+00  0.00000000E+00  1.00000000E+00  0.00000000E+00  0.00000000E+00
  0.00000000E+00  0.00000000E+00  0.00000000E+00  1.00000000E+00  1.00000000E+00
  0.00000000E+00  1.00000000E+00  0.00000000E+00  0.00000000E+00  0.00000000E+00
  0.00000000E+00  0.00000000E+00  0.00000000E+00  0.00000000E+00  0.00000000E+00
  0.00000000E+00  0.00000000E+00
MxBond                                     I                1
NBond                                      I   N=           1
           0
IBond                                      I   N=           1
           0
RBond                                      R   N=           1
  0.00000000E+00
Virial Ratio                               R      1.994654223671053E+00
SCF Energy                                 R     -9.929257253464829E+01
Total Energy                               R     -9.929257253464829E+01
S**2                                       R      7.596697831521411E-01
S**2 after annihilation                    R      7.500696239105581E-01
RMS Density                                R      3.154514458746956E-09
Job Status                                 I                1
Nuclear derivative order                   I                0
External E-field                           R   N=          35
  0.00000000E+00  0.00000000E+00  0.00000000E+00  0.00000000E+00  0.00000000E+00
  0.00000000E+00  0.00000000E+00  0.00000000E+00  0.00000000E+00  0.00000000E+00
  0.00000000E+00  0.00000000E+00  0.00000000E+00  0.00000000E+00  0.00000000E+00
  0.00000000E+00  0.00000000E+00  0.00000000E+00  0.00000000E+00  0.00000000E+00
  0.00000000E+00  0.00000000E+00  0.00000000E+00  0.00000000E+00  0.00000000E+00
  0.00000000E+00  0.00000000E+00  0.00000000E+00  0.00000000E+00  0.00000000E+00
  0.00000000E+00  0.00000000E+00  0.00000000E+00  0.00000000E+00  0.00000000E+00
IOpCl                                      I                1
IROHF                                      I                0
Alpha Orbital Energies                     R   N=          22
 -2.40560813E+01 -4.50671771E-01  2.74589695E-01  2.74589695E-01  2.74589695E-01
  5.64169384E-01  6.68823221E-01  6.68823221E-01  6.68823221E-01  1.91251125E+00
  1.91251125E+00  1.91251125E+00  2.21454070E+00  4.51966550E+00  4.51966550E+00
  4.51966550E+00  4.51966550E+00  4.51966550E+00  6.99340511E+00  6.99340511E+00
  6.99340511E+00  6.75304421E+01
Beta Orbital Energies                      R   N=          22
 -2.40571351E+01 -4.51700914E-01  2.74552024E-01  2.74552024E-01  2.74552024E-01
  6.66218443E-01  7.06788343E-01  7.06788343E-01  7.06788343E-01  1.92064499E+00
  1.92064499E+00  1.92064499E+00  2.22283693E+00  4.51473841E+00  4.51473841E+00
  4.51473841E+00  4.51473841E+00  4.51473841E+00  6.98973641E+00  6.98973641E+00
  6.98973641E+00  6.75307749E+01
Alpha MO coefficients                      R   N=         484
  5.48137282E-01  4.71857298E-01  0.00000000E+00  0.00000000E+00  0.00000000E+00
  1.04295942E-02  0.00000000E+00  0.00000000E+00  0.00000000E+00 -4.38083821E-03
  0.00000000E+00  0.00000000E+00  0.00000000E+00  1.68773792E-03  0.00000000E+00
  0.00000000E+00  0.00000000E+00  5.67630020E-16  0.00000000E+00  0.00000000E+00
 -4.71448897E-16  0.00000000E+00 -1.28305675E-01 -2.09045512E-01  0.00000000E+00
  0.00000000E+00  0.00000000E+00  6.28989988E-01  0.00000000E+00  0.00000000E+00
  0.00000000E+00  4.68468249E-01  0.00000000E+00  0.00000000E+00  0.00000000E+00
  3.89281562E-02  0.00000000E+00  0.00000000E+00  0.00000000E+00  3.27492268E-16
  0.00000000E+00  0.00000000E+00 -2.95100217E-17  0.00000000E+00  0.00000000E+00
  0.00000000E+00  2.90241774E-01  0.00000000E+00  0.00000000E+00  0.00000000E+00
  4.28228228E-01  0.00000000E+00  0.00000000E+00  0.00000000E+00  3.20750129E-01
  0.00000000E+00  0.00000000E+00  0.00000000E+00  2.84658185E-01  0.00000000E+00
  0.00000000E+00  0.00000000E+00  0.00000000E+00  0.00000000E+00  0.00000000E+00
  0.00000000E+00  0.00000000E+00  0.00000000E+00  0.00000000E+00  0.00000000E+00
  2.90241774E-01  0.00000000E+00  0.00000000E+00  0.00000000E+00  4.28228228E-01
  0.00000000E+00  0.00000000E+00  0.00000000E+00  3.20750129E-01  0.00000000E+00
  0.00000000E+00  0.00000000E+00  2.84658185E-01  0.00000000E+00  0.00000000E+00
  0.00000000E+00  0.00000000E+00  0.00000000E+00  0.00000000E+00  0.00000000E+00
  0.00000000E+00  2.90241774E-01  0.00000000E+00  0.00000000E+00  0.00000000E+00
  4.28228228E-01  0.00000000E+00  0.00000000E+00  0.00000000E+00  3.20750129E-01
  0.00000000E+00  0.00000000E+00  0.00000000E+00  2.84658185E-01  0.00000000E+00
  0.00000000E+00  0.00000000E+00  0.00000000E+00  0.00000000E+00  0.00000000E+00
  3.67953171E-02  5.67368897E-02  0.00000000E+00  0.00000000E+00  0.00000000E+00
 -8.81047097E-02  0.00000000E+00  0.00000000E+00  0.00000000E+00 -1.07608140E+00
  0.00000000E+00  0.00000000E+00  0.00000000E+00  1.62536276E+00  0.00000000E+00
  0.00000000E+00  0.00000000E+00 -8.51833921E-17  0.00000000E+00  0.00000000E+00
 -5.89055693E-17  0.00000000E+00  0.00000000E+00  0.00000000E+00 -1.68874059E-01
  0.00000000E+00  0.00000000E+00  0.00000000E+00 -1.54506535E-01  0.00000000E+00
  0.00000000E+00  0.00000000E+00 -6.50696830E-01  0.00000000E+00  0.00000000E+00
  0.00000000E+00  1.25943581E+00  0.00000000E+00  0.00000000E+00  0.00000000E+00
  0.00000000E+00  0.00000000E+00  0.00000000E+00  0.00000000E+00  0.00000000E+00
  0.00000000E+00  0.00000000E+00 -1.68874059E-01  0.00000000E+00  0.00000000E+00
  0.00000000E+00 -1.54506535E-01  0.00000000E+00  0.00000000E+00  0.00000000E+00
 -6.50696830E-01  0.00000000E+00  0.00000000E+00  0.00000000E+00  1.25943581E+00
  0.00000000E+00  0.00000000E+00  0.00000000E+00  0.00000000E+00  0.00000000E+00
  0.00000000E+00  0.00000000E+00  0.00000000E+00  0.00000000E+00  0.00000000E+00
 -1.68874059E-01  0.00000000E+00  0.00000000E+00  0.00000000E+00 -1.54506535E-01
  0.00000000E+00  0.00000000E+00  0.00000000E+00 -6.50696830E-01  0.00000000E+00
  0.00000000E+00  0.00000000E+00  1.25943581E+00  0.00000000E+00  0.00000000E+00
  0.00000000E+00  0.00000000E+00  0.00000000E+00  0.00000000E+00  0.00000000E+00
  0.00000000E+00 -2.68551502E-01  0.00000000E+00  0.00000000E+00  0.00000000E+00
 -8.32181726E-01  0.00000000E+00  0.00000000E+00  0.00000000E+00  1.60530625E+00
  0.00000000E+00  0.00000000E+00  0.00000000E+00 -7.30959386E-01  0.00000000E+00
  0.00000000E+00  0.00000000E+00  0.00000000E+00  0.00000000E+00  0.00000000E+00
  0.00000000E+00  0.00000000E+00 -2.68551502E-01  0.00000000E+00  0.00000000E+00
  0.00000000E+00 -8.32181726E-01  0.00000000E+00  0.00000000E+00  0.00000000E+00
  1.60530625E+00  0.00000000E+00  0.00000000E+00  0.00000000E+00 -7.30959386E-01
  0.00000000E+00  0.00000000E+00  0.00000000E+00  0.00000000E+00  0.00000000E+00
  0.00000000E+00  0.00000000E+00  0.00000000E+00  0.00000000E+00  0.00000000E+00
  0.00000000E+00 -2.68551502E-01  0.00000000E+00  0.00000000E+00  0.00000000E+00
 -8.32181726E-01  0.00000000E+00  0.00000000E+00  0.00000000E+00  1.60530625E+00
  0.00000000E+00  0.00000000E+00  0.00000000E+00 -7.30959386E-01  0.00000000E+00
  0.00000000E+00  0.00000000E+00  0.00000000E+00  0.00000000E+00  1.25230341E-01
  2.47026881E-01  0.00000000E+00  0.00000000E+00  0.00000000E+00 -1.77169325E+00
  0.00000000E+00  0.00000000E+00  0.00000000E+00  2.43591550E+00  0.00000000E+00
  0.00000000E+00  0.00000000E+00 -1.06195971E+00  0.00000000E+00  0.00000000E+00
  0.00000000E+00 -6.12671568E-16  0.00000000E+00  0.00000000E+00  5.84580389E-16
  0.00000000E+00  0.00000000E+00  0.00000000E+00  0.00000000E+00  0.00000000E+00
  0.00000000E+00  0.00000000E+00  0.00000000E+00  0.00000000E+00  0.00000000E+00
  0.00000000E+00  0.00000000E+00  0.00000000E+00  0.00000000E+00  0.00000000E+00
  0.00000000E+00  0.00000000E+00  0.00000000E+00  0.00000000E+00  0.00000000E+00
  1.00000000E+00  0.00000000E+00  0.00000000E+00  0.00000000E+00  0.00000000E+00
  0.00000000E+00  0.00000000E+00  0.00000000E+00  0.00000000E+00  0.00000000E+00
  0.00000000E+00  0.00000000E+00  0.00000000E+00  0.00000000E+00  0.00000000E+00
  0.00000000E+00  0.00000000E+00  0.00000000E+00  0.00000000E+00  0.00000000E+00
  0.00000000E+00  1.00000000E+00  0.00000000E+00  0.00000000E+00  0.00000000E+00
  0.00000000E+00  0.00000000E+00  0.00000000E+00  0.00000000E+00  0.00000000E+00
  0.00000000E+00  0.00000000E+00  0.00000000E+00  0.00000000E+00  0.00000000E+00
  0.00000000E+00  0.00000000E+00  0.00000000E+00  0.00000000E+00  0.00000000E+00
  0.00000000E+00  0.00000000E+00  0.00000000E+00  0.00000000E+00  0.00000000E+00
  0.00000000E+00  1.00000000E+00  4.33472381E-17  5.01162998E-17  0.00000000E+00
  0.00000000E+00  0.00000000E+00  1.60473568E-16  0.00000000E+00  0.00000000E+00
  0.00000000E+00 -1.30602684E-15  0.00000000E+00  0.00000000E+00  0.00000000E+00
  8.90906743E-16  0.00000000E+00  0.00000000E+00  0.00000000E+00  7.72664909E-01
  0.00000000E+00  0.00000000E+00  6.34814098E-01  0.00000000E+00 -1.48071508E-16
 -2.09144239E-16  0.00000000E+00  0.00000000E+00  0.00000000E+00  9.50792067E-16
  0.00000000E+00  0.00000000E+00  0.00000000E+00 -1.13966373E-15  0.00000000E+00
  0.00000000E+00  0.00000000E+00  1.06165669E-15  0.00000000E+00  0.00000000E+00
  0.00000000E+00 -6.34814098E-01  0.00000000E+00  0.00000000E+00  7.72664909E-01
  0.00000000E+00  0.00000000E+00  0.00000000E+00  0.00000000E+00 -1.26096057E+00
  0.00000000E+00  0.00000000E+00  0.00000000E+00  1.48695232E+00  0.00000000E+00
  0.00000000E+00  0.00000000E+00 -8.20780017E-01  0.00000000E+00  0.00000000E+00
  0.00000000E+00  3.02608689E-01  0.00000000E+00  0.00000000E+00  0.00000000E+00
  0.00000000E+00  0.00000000E+00  0.00000000E+00  0.00000000E+00  0.00000000E+00
 -1.26096057E+00  0.00000000E+00  0.00000000E+00  0.00000000E+00  1.48695232E+00
  0.00000000E+00  0.00000000E+00  0.00000000E+00 -8.20780017E-01  0.00000000E+00
  0.00000000E+00  0.00000000E+00  3.02608689E-01  0.00000000E+00  0.00000000E+00
  0.00000000E+00  0.00000000E+00  0.00000000E+00  0.00000000E+00  0.00000000E+00
  0.00000000E+00  0.00000000E+00  0.00000000E+00  0.00000000E+00 -1.26096057E+00
  0.00000000E+00  0.00000000E+00  0.00000000E+00  1.48695232E+00  0.00000000E+00
  0.00000000E+00  0.00000000E+00 -8.20780017E-01  0.00000000E+00  0.00000000E+00
  0.00000000E+00  3.02608689E-01  0.00000000E+00  0.00000000E+00  0.00000000E+00
  0.00000000E+00  0.00000000E+00 -2.32564475E+00  2.39284709E+00  0.00000000E+00
  0.00000000E+00  0.00000000E+00 -1.96057234E-01  0.00000000E+00  0.00000000E+00
  0.00000000E+00  1.94281938E-01  0.00000000E+00  0.00000000E+00  0.00000000E+00
 -7.95654450E-02  0.00000000E+00  0.00000000E+00  0.00000000E+00  2.71921232E-17
  0.00000000E+00  0.00000000E+00 -9.23761304E-18  0.00000000E+00
Beta MO coefficients                       R   N=         484
  5.47940752E-01  4.71972882E-01  0.00000000E+00  0.00000000E+00  0.00000000E+00
  1.06783529E-02  0.00000000E+00  0.00000000E+00  0.00000000E+00 -4.50360662E-03
  0.00000000E+00  0.00000000E+00  0.00000000E+00  1.73154341E-03  0.00000000E+00
  0.00000000E+00  0.00000000E+00 -8.89102913E-16  0.00000000E+00  0.00000000E+00
 -4.05784844E-16  0.00000000E+00 -1.28438393E-01 -2.09238865E-01  0.00000000E+00
  0.00000000E+00  0.00000000E+00  6.28154519E-01  0.00000000E+00  0.00000000E+00
  0.00000000E+00  4.75433913E-01  0.00000000E+00  0.00000000E+00  0.00000000E+00
  3.02545968E-02  0.00000000E+00  0.00000000E+00  0.00000000E+00 -1.10930075E-17
  0.00000000E+00  0.00000000E+00  3.71517313E-17  0.00000000E+00  0.00000000E+00
  0.00000000E+00  0.00000000E+00  0.00000000E+00  3.00628428E-01  0.00000000E+00
  0.00000000E+00  0.00000000E+00  4.40893293E-01  0.00000000E+00  0.00000000E+00
  0.00000000E+00  3.48303630E-01  0.00000000E+00  0.00000000E+00  0.00000000E+00
  2.16975028E-01  0.00000000E+00  0.00000000E+00  0.00000000E+00  0.00000000E+00
  0.00000000E+00  0.00000000E+00  0.00000000E+00  3.00628428E-01  0.00000000E+00
  0.00000000E+00  0.00000000E+00  4.40893293E-01  0.00000000E+00  0.00000000E+00
  0.00000000E+00  3.48303630E-01  0.00000000E+00  0.00000000E+00  0.00000000E+00
  2.16975028E-01  0.00000000E+00  0.00000000E+00  0.00000000E+00  0.00000000E+00
  0.00000000E+00  0.00000000E+00  0.00000000E+00  0.00000000E+00  0.00000000E+00
  0.00000000E+00  3.00628428E-01  0.00000000E+00  0.00000000E+00  0.00000000E+00
  4.40893293E-01  0.00000000E+00  0.00000000E+00  0.00000000E+00  3.48303630E-01
  0.00000000E+00  0.00000000E+00  0.00000000E+00  2.16975028E-01  0.00000000E+00
  0.00000000E+00  0.00000000E+00  0.00000000E+00  0.00000000E+00  0.00000000E+00
  3.62600869E-02  5.59026633E-02  0.00000000E+00  0.00000000E+00  0.00000000E+00
 -8.61710354E-02  0.00000000E+00  0.00000000E+00  0.00000000E+00 -1.07222967E+00
  0.00000000E+00  0.00000000E+00  0.00000000E+00  1.62485432E+00  0.00000000E+00
  0.00000000E+00  0.00000000E+00 -9.61548848E-17  0.00000000E+00  0.00000000E+00
 -9.67297314E-17  0.00000000E+00  0.00000000E+00  0.00000000E+00  0.00000000E+00
 -1.53196710E-01  0.00000000E+00  0.00000000E+00  0.00000000E+00 -1.29769197E-01
  0.00000000E+00  0.00000000E+00  0.00000000E+00 -6.30795537E-01  0.00000000E+00
  0.00000000E+00  0.00000000E+00  1.27313392E+00  0.00000000E+00  0.00000000E+00
  0.00000000E+00  0.00000000E+00  0.00000000E+00  0.00000000E+00  0.00000000E+00
  0.00000000E+00  0.00000000E+00  0.00000000E+00 -1.53196710E-01  0.00000000E+00
  0.00000000E+00  0.00000000E+00 -1.29769197E-01  0.00000000E+00  0.00000000E+00
  0.00000000E+00 -6.30795537E-01  0.00000000E+00  0.00000000E+00  0.00000000E+00
  1.27313392E+00  0.00000000E+00  0.00000000E+00  0.00000000E+00  0.00000000E+00
  0.00000000E+00  0.00000000E+00  0.00000000E+00 -1.53196710E-01  0.00000000E+00
  0.00000000E+00  0.00000000E+00 -1.29769197E-01  0.00000000E+00  0.00000000E+00
  0.00000000E+00 -6.30795537E-01  0.00000000E+00  0.00000000E+00  0.00000000E+00
  1.27313392E+00  0.00000000E+00  0.00000000E+00  0.00000000E+00  0.00000000E+00
  0.00000000E+00  0.00000000E+00  0.00000000E+00  0.00000000E+00  0.00000000E+00
  0.00000000E+00 -2.68995950E-01  0.00000000E+00  0.00000000E+00  0.00000000E+00
 -8.27161034E-01  0.00000000E+00  0.00000000E+00  0.00000000E+00  1.60627244E+00
  0.00000000E+00  0.00000000E+00  0.00000000E+00 -7.30271174E-01  0.00000000E+00
  0.00000000E+00  0.00000000E+00  0.00000000E+00  0.00000000E+00  0.00000000E+00
  0.00000000E+00  0.00000000E+00 -2.68995950E-01  0.00000000E+00  0.00000000E+00
  0.00000000E+00 -8.27161034E-01  0.00000000E+00  0.00000000E+00  0.00000000E+00
  1.60627244E+00  0.00000000E+00  0.00000000E+00  0.00000000E+00 -7.30271174E-01
  0.00000000E+00  0.00000000E+00  0.00000000E+00  0.00000000E+00  0.00000000E+00
  0.00000000E+00  0.00000000E+00  0.00000000E+00  0.00000000E+00  0.00000000E+00
  0.00000000E+00 -2.68995950E-01  0.00000000E+00  0.00000000E+00  0.00000000E+00
 -8.27161034E-01  0.00000000E+00  0.00000000E+00  0.00000000E+00  1.60627244E+00
  0.00000000E+00  0.00000000E+00  0.00000000E+00 -7.30271174E-01  0.00000000E+00
  0.00000000E+00  0.00000000E+00  0.00000000E+00  0.00000000E+00  1.25359111E-01
  2.47179477E-01  0.00000000E+00  0.00000000E+00  0.00000000E+00 -1.77208354E+00
  0.00000000E+00  0.00000000E+00  0.00000000E+00  2.43626272E+00  0.00000000E+00
  0.00000000E+00  0.00000000E+00 -1.06301897E+00  0.00000000E+00  0.00000000E+00
  0.00000000E+00 -4.49971572E-16  0.00000000E+00  0.00000000E+00  2.75643227E-16
  0.00000000E+00  0.00000000E+00  0.00000000E+00  0.00000000E+00  0.00000000E+00
  0.00000000E+00  0.00000000E+00  0.00000000E+00  0.00000000E+00  0.00000000E+00
  0.00000000E+00  0.00000000E+00  0.00000000E+00  0.00000000E+00  0.00000000E+00
  0.00000000E+00  0.00000000E+00  0.00000000E+00  0.00000000E+00  0.00000000E+00
  1.00000000E+00  0.00000000E+00  0.00000000E+00  0.00000000E+00  0.00000000E+00
  0.00000000E+00  0.00000000E+00  0.00000000E+00  0.00000000E+00  0.00000000E+00
  0.00000000E+00  0.00000000E+00  0.00000000E+00  0.00000000E+00  0.00000000E+00
  0.00000000E+00  0.00000000E+00  0.00000000E+00  0.00000000E+00  0.00000000E+00
  0.00000000E+00  1.00000000E+00  0.00000000E+00  0.00000000E+00  0.00000000E+00
  0.00000000E+00  0.00000000E+00  0.00000000E+00  0.00000000E+00  0.00000000E+00
  0.00000000E+00  0.00000000E+00  0.00000000E+00  0.00000000E+00  0.00000000E+00
  0.00000000E+00  0.00000000E+00  0.00000000E+00  0.00000000E+00  0.00000000E+00
  0.00000000E+00  0.00000000E+00  0.00000000E+00  0.00000000E+00  0.00000000E+00
  0.00000000E+00  1.00000000E+00 -2.80922928E-17 -7.04445229E-17  0.00000000E+00
  0.00000000E+00  0.00000000E+00  1.08927286E-15  0.00000000E+00  0.00000000E+00
  0.00000000E+00 -2.79544677E-15  0.00000000E+00  0.00000000E+00  0.00000000E+00
  1.63646949E-15  0.00000000E+00  0.00000000E+00  0.00000000E+00  1.80471941E-02
  0.00000000E+00  0.00000000E+00  9.99837136E-01  0.00000000E+00  5.32968942E-17
  1.68636164E-16  0.00000000E+00  0.00000000E+00  0.00000000E+00 -1.21059108E-15
  0.00000000E+00  0.00000000E+00  0.00000000E+00  3.30094114E-16  0.00000000E+00
  0.00000000E+00  0.00000000E+00  4.22744157E-16  0.00000000E+00  0.00000000E+00
  0.00000000E+00  9.99837136E-01  0.00000000E+00  0.00000000E+00 -1.80471941E-02
  0.00000000E+00  0.00000000E+00  0.00000000E+00  0.00000000E+00 -1.26043433E+00
  0.00000000E+00  0.00000000E+00  0.00000000E+00  1.48841627E+00  0.00000000E+00
  0.00000000E+00  0.00000000E+00 -8.23192225E-01  0.00000000E+00  0.00000000E+00
  0.00000000E+00  3.03048431E-01  0.00000000E+00  0.00000000E+00  0.00000000E+00
  0.00000000E+00  0.00000000E+00  0.00000000E+00  0.00000000E+00  0.00000000E+00
  0.00000000E+00  0.00000000E+00 -1.26043433E+00  0.00000000E+00  0.00000000E+00
  0.00000000E+00  1.48841627E+00  0.00000000E+00  0.00000000E+00  0.00000000E+00
 -8.23192225E-01  0.00000000E+00  0.00000000E+00  0.00000000E+00  3.03048431E-01
  0.00000000E+00  0.00000000E+00  0.00000000E+00  0.00000000E+00  0.00000000E+00
  0.00000000E+00  0.00000000E+00 -1.26043433E+00  0.00000000E+00  0.00000000E+00
  0.00000000E+00  1.48841627E+00  0.00000000E+00  0.00000000E+00  0.00000000E+00
 -8.23192225E-01  0.00000000E+00  0.00000000E+00  0.00000000E+00  3.03048431E-01
  0.00000000E+00  0.00000000E+00  0.00000000E+00  0.00000000E+00  0.00000000E+00
  0.00000000E+00  0.00000000E+00 -2.32568521E+00  2.39281127E+00  0.00000000E+00
  0.00000000E+00  0.00000000E+00 -1.96054560E-01  0.00000000E+00  0.00000000E+00
  0.00000000E+00  1.94299876E-01  0.00000000E+00  0.00000000E+00  0.00000000E+00
 -7.95749802E-02  0.00000000E+00  0.00000000E+00  0.00000000E+00  2.61467211E-17
  0.00000000E+00  0.00000000E+00 -9.16182153E-18  0.00000000E+00
Orthonormal basis                          R   N=         484
  2.43201941E-01  2.48566728E-01  0.00000000E+00  0.00000000E+00  0.00000000E+00
  3.11909684E-01  0.00000000E+00  0.00000000E+00  0.00000000E+00  3.08248900E-01
  0.00000000E+00  0.00000000E+00  0.00000000E+00  2.48713467E-01  0.00000000E+00
  0.00000000E+00  0.00000000E+00 -1.86450083E-17  0.00000000E+00  0.00000000E+00
 -1.65744237E-17  0.00000000E+00  4.33756576E-01  4.30075379E-01  0.00000000E+00
  0.00000000E+00  0.00000000E+00 -8.69081506E-02  0.00000000E+00  0.00000000E+00
  0.00000000E+00 -3.18143230E-01  0.00000000E+00  0.00000000E+00  0.00000000E+00
 -3.50676936E-01  0.00000000E+00  0.00000000E+00  0.00000000E+00  5.04247227E-17
  0.00000000E+00  0.00000000E+00  5.95485801E-17  0.00000000E+00 -6.77808663E-17
 -6.88289112E-17  0.00000000E+00  0.00000000E+00  0.00000000E+00  1.36908280E-16
  0.00000000E+00  0.00000000E+00  0.00000000E+00  1.29363799E-16  0.00000000E+00
  0.00000000E+00  0.00000000E+00 -9.95676482E-17  0.00000000E+00  0.00000000E+00
  0.00000000E+00  5.93254726E-01  0.00000000E+00  0.00000000E+00  8.05014801E-01
  0.00000000E+00 -3.41496546E-29 -1.12034312E-17  0.00000000E+00  0.00000000E+00
  0.00000000E+00  2.47945679E-17  0.00000000E+00  0.00000000E+00  0.00000000E+00
  1.74212799E-17  0.00000000E+00  0.00000000E+00  0.00000000E+00 -2.06756134E-17
  0.00000000E+00  0.00000000E+00  0.00000000E+00  8.05014801E-01  0.00000000E+00
  0.00000000E+00 -5.93254726E-01  0.00000000E+00 -2.80960915E-01 -1.92850672E-01
  0.00000000E+00  0.00000000E+00  0.00000000E+00  1.02585685E+00  0.00000000E+00
  0.00000000E+00  0.00000000E+00  5.78929334E-02  0.00000000E+00  0.00000000E+00
  0.00000000E+00 -8.90798636E-01  0.00000000E+00  0.00000000E+00  0.00000000E+00
 -1.95830849E-16  0.00000000E+00  0.00000000E+00 -1.86469796E-16  0.00000000E+00
  2.00973273E+00 -1.90689255E+00  0.00000000E+00  0.00000000E+00  0.00000000E+00
 -6.29485453E-01  0.00000000E+00  0.00000000E+00  0.00000000E+00  1.28490118E+00
  0.00000000E+00  0.00000000E+00  0.00000000E+00 -8.62468877E-01  0.00000000E+00
  0.00000000E+00  0.00000000E+00 -1.35125723E-16  0.00000000E+00  0.00000000E+00
 -1.05866146E-16  0.00000000E+00 -1.17359287E+00  1.46154954E+00  0.00000000E+00
  0.00000000E+00  0.00000000E+00 -1.42385398E+00  0.00000000E+00  0.00000000E+00
  0.00000000E+00  2.34484702E+00  0.00000000E+00  0.00000000E+00  0.00000000E+00
 -1.43359825E+00  0.00000000E+00  0.00000000E+00  0.00000000E+00 -1.50344135E-16
  0.00000000E+00  0.00000000E+00 -1.72298177E-16  0.00000000E+00  0.00000000E+00
  0.00000000E+00  0.00000000E+00  0.00000000E+00  0.00000000E+00  0.00000000E+00
  0.00000000E+00  0.00000000E+00  0.00000000E+00  0.00000000E+00  0.00000000E+00
  0.00000000E+00  0.00000000E+00  0.00000000E+00  0.00000000E+00  0.00000000E+00
  0.00000000E+00  0.00000000E+00  0.00000000E+00  0.00000000E+00  0.00000000E+00
  1.00000000E+00  0.00000000E+00  0.00000000E+00  0.00000000E+00  0.00000000E+00
  0.00000000E+00  0.00000000E+00  0.00000000E+00  0.00000000E+00  0.00000000E+00
  0.00000000E+00  0.00000000E+00  0.00000000E+00  0.00000000E+00  0.00000000E+00
  0.00000000E+00  0.00000000E+00  0.00000000E+00  0.00000000E+00  1.00000000E+00
  0.00000000E+00  0.00000000E+00  0.00000000E+00  0.00000000E+00  0.00000000E+00
  0.00000000E+00  0.00000000E+00  0.00000000E+00  0.00000000E+00  0.00000000E+00
  0.00000000E+00  0.00000000E+00  0.00000000E+00  0.00000000E+00  0.00000000E+00
  0.00000000E+00  0.00000000E+00  0.00000000E+00  0.00000000E+00  0.00000000E+00
  0.00000000E+00  0.00000000E+00  1.00000000E+00  0.00000000E+00  0.00000000E+00
  0.00000000E+00  0.00000000E+00  0.00000000E+00  0.00000000E+00  2.54113776E-01
  0.00000000E+00  0.00000000E+00  0.00000000E+00  3.72149011E-01  0.00000000E+00
  0.00000000E+00  0.00000000E+00  3.90572601E-01  0.00000000E+00  0.00000000E+00
  0.00000000E+00  2.99308236E-01  0.00000000E+00  0.00000000E+00  0.00000000E+00
  0.00000000E+00  0.00000000E+00  0.00000000E+00  0.00000000E+00  0.00000000E+00
  0.00000000E+00  6.04158525E-01  0.00000000E+00  0.00000000E+00  0.00000000E+00
  3.26994324E-01  0.00000000E+00  0.00000000E+00  0.00000000E+00 -2.97276902E-01