fubar                                                                   
SP        UPBE1PBE                                                    6-311+G(d,p)        
Number of atoms                            I                1
Info1-9                                    I   N=           9
          11          10           0           0           0         110
           1          18       -1302
Full Title                                 C   N=           1
fubar       
Route                                      C   N=           3
#PBE1PBE/6-311+G(d,p) scf=tight     
Charge                                     I                3
Multiplicity                               I                2
Number of electrons                        I                5
Number of alpha electrons                  I                3
Number of beta electrons                   I                2
Number of basis functions                  I               22
Number of independent functions            I               22
Number of point charges in /Mol/           I                0
Number of translation vectors              I                0
Atomic numbers                             I   N=           1
           8
Nuclear charges                            R   N=           1
  8.00000000E+00
Current cartesian coordinates              R   N=           3
  0.00000000E+00  0.00000000E+00  0.00000000E+00
Number of symbols in /Mol/                 I                0
Int Atom Types                             I   N=           1
           0
Force Field                                I                0
Atom Types                                 C   N=           1
            
MM charges                                 R   N=           1
  0.00000000E+00
Integer atomic weights                     I   N=           1
          16
Real atomic weights                        R   N=           1
  1.59949146E+01
Atom fragment info                         I   N=           1
           0
Atom residue num                           I   N=           1
           0
Nuclear spins                              I   N=           1
           0
Nuclear ZEff                               R   N=           1
 -5.60000000E+00
Nuclear ZNuc                               R   N=           1
  8.00000000E+00
Nuclear QMom                               R   N=           1
  0.00000000E+00
Nuclear GFac                               R   N=           1
  0.00000000E+00
MicOpt                                     I   N=           1
          -1
Number of residues                         I                0
Number of secondary structures             I                0
SymInf integers                            I   N=          26
           1           8           1           1           1           1
          -1          -1          -1           1          -1          -1
          -1           1          -1          -1          -1          -1
           1           1           1          -1           1           1
           1          -1
RotTr to input orientation                 R   N=          12
  0.00000000E+00  0.00000000E+00 -1.00000000E+00  0.00000000E+00  1.00000000E+00
  0.00000000E+00  1.00000000E+00  0.00000000E+00  0.00000000E+00  0.00000000E+00
  0.00000000E+00  0.00000000E+00
Number of contracted shells                I                6
Number of primitive shells                 I               13
Pure/Cartesian d shells                    I                0
Pure/Cartesian f shells                    I                0
Highest angular momentum                   I                2
Largest degree of contraction              I                6
Shell types                                I   N=           6
           0          -1          -1          -1          -1          -2
Number of primitives per shell             I   N=           6
           6           3           1           1           1           1
Shell to atom map                          I   N=           6
           1           1           1           1           1           1
Primitive exponents                        R   N=          13
  8.58850000E+03  1.29723000E+03  2.99296000E+02  8.73771000E+01  2.56789000E+01
  3.74004000E+00  4.21175000E+01  9.62837000E+00  2.85332000E+00  9.05661000E-01
  2.55611000E-01  8.45000000E-02  1.29200000E+00
Contraction coefficients                   R   N=          13
  1.89515008E-03  1.43859006E-02  7.07320031E-02  2.40001011E-01  5.94797026E-01
  2.80802012E-01  1.13889012E-01  9.20811101E-01 -3.27447036E-03  1.00000000E+00
  1.00000000E+00  1.00000000E+00  1.00000000E+00
P(S=P) Contraction coefficients            R   N=          13
  0.00000000E+00  0.00000000E+00  0.00000000E+00  0.00000000E+00  0.00000000E+00
  0.00000000E+00  3.65113974E-02  2.37152983E-01  8.19701941E-01  1.00000000E+00
  1.00000000E+00  1.00000000E+00  0.00000000E+00
Coordinates of each shell                  R   N=          18
  0.00000000E+00  0.00000000E+00  0.00000000E+00  0.00000000E+00  0.00000000E+00
  0.00000000E+00  0.00000000E+00  0.00000000E+00  0.00000000E+00  0.00000000E+00
  0.00000000E+00  0.00000000E+00  0.00000000E+00  0.00000000E+00  0.00000000E+00
  0.00000000E+00  0.00000000E+00  0.00000000E+00
Num ILSW                                   I              100
ILSW                                       I   N=         100
           1           0           0           0           2           0
           0           0           0           0        1009          -1
           5           0           0           0           0           0
           0           0           0           0           0           0
           1           0           0           0           0           0
           0           0      100000           0          -1           0
           0           0           0           0           0           0
           0           0           0           1           0           0
           0 -2000000000           1           0           0           0
           0           1           4          52           0           0
           0           0          13           0           0           0
           0           0           0           1           0           1
           0           0           0           0           0           0
           0           0           0           0           0           0
           0           0           0           0           0           0
           0           0           0           0           0           0
           0           0           0           0
Num RLSW                                   I               52
RLSW                                       R   N=          52
  7.50000000E-01  7.50000000E-01  1.00000000E+00  1.00000000E+00  2.50000000E-01
  0.00000000E+00  0.00000000E+00  1.00000000E+00  0.00000000E+00  0.00000000E+00
  0.00000000E+00  0.00000000E+00  1.00000000E+00  0.00000000E+00  0.00000000E+00
  0.00000000E+00  0.00000000E+00  1.00000000E+00  0.00000000E+00  0.00000000E+00
  0.00000000E+00  0.00000000E+00  1.00000000E+00  0.00000000E+00  0.00000000E+00
  0.00000000E+00  0.00000000E+00  1.00000000E+00  0.00000000E+00  0.00000000E+00
  0.00000000E+00  0.00000000E+00  1.00000000E+00  0.00000000E+00  0.00000000E+00
  0.00000000E+00  0.00000000E+00  0.00000000E+00  1.00000000E+00  1.00000000E+00
  0.00000000E+00  1.00000000E+00  0.00000000E+00  0.00000000E+00  0.00000000E+00
  0.00000000E+00  0.00000000E+00  0.00000000E+00  0.00000000E+00  0.00000000E+00
  0.00000000E+00  0.00000000E+00
MxBond                                     I                1
NBond                                      I   N=           1
           0
IBond                                      I   N=           1
           0
RBond                                      R   N=           1
  0.00000000E+00
Virial Ratio                               R      2.002893909175059E+00
SCF Energy                                 R     -7.117324994757280E+01
Total Energy                               R     -7.117324994757280E+01
S**2                                       R      7.511546721733677E-01
S**2 after annihilation                    R      7.500000004938522E-01
RMS Density                                R      1.343656836244422E-09
Job Status                                 I                1
Nuclear derivative order                   I                0
External E-field                           R   N=          35
  0.00000000E+00  0.00000000E+00  0.00000000E+00  0.00000000E+00  0.00000000E+00
  0.00000000E+00  0.00000000E+00  0.00000000E+00  0.00000000E+00  0.00000000E+00
  0.00000000E+00  0.00000000E+00  0.00000000E+00  0.00000000E+00  0.00000000E+00
  0.00000000E+00  0.00000000E+00  0.00000000E+00  0.00000000E+00  0.00000000E+00
  0.00000000E+00  0.00000000E+00  0.00000000E+00  0.00000000E+00  0.00000000E+00
  0.00000000E+00  0.00000000E+00  0.00000000E+00  0.00000000E+00  0.00000000E+00
  0.00000000E+00  0.00000000E+00  0.00000000E+00  0.00000000E+00  0.00000000E+00
IOpCl                                      I                1
IROHF                                      I                0
Alpha Orbital Energies                     R   N=          22
 -2.20258367E+01 -3.05503617E+00 -2.56090475E+00 -2.30051346E+00 -2.30051346E+00
 -8.72124814E-01 -7.50287530E-01 -7.38797047E-01 -7.38797047E-01 -2.49106018E-01
 -2.39749121E-01 -2.39749121E-01 -1.73035444E-01  7.25552494E-01  7.25552494E-01
  7.34314473E-01  7.56022377E-01  7.56022415E-01  2.73908179E+00  2.78578015E+00
  2.78578015E+00  4.70787031E+01
Beta Orbital Energies                      R   N=          22
 -2.19844583E+01 -2.94401571E+00 -2.26224806E+00 -2.26224806E+00 -2.14705306E+00
 -8.52706376E-01 -7.30106157E-01 -7.30106157E-01 -7.08032139E-01 -2.32259217E-01
 -2.32259217E-01 -2.09232301E-01 -1.48160674E-01  7.69373618E-01  7.69373620E-01
  8.45472244E-01  8.45472244E-01  8.69193938E-01  2.80945478E+00  2.80945478E+00
  2.89492756E+00  4.71114147E+01
Alpha MO coefficients                      R   N=         484
  5.51945508E-01  4.70683994E-01  0.00000000E+00  0.00000000E+00  0.00000000E+00
  7.94326508E-03  0.00000000E+00  0.00000000E+00  0.00000000E+00 -3.46800782E-03
  0.00000000E+00  0.00000000E+00  0.00000000E+00  1.25881691E-03  0.00000000E+00
  0.00000000E+00  0.00000000E+00 -2.84228307E-04  0.00000000E+00  0.00000000E+00
 -4.92297869E-04  0.00000000E+00 -1.52141675E-01 -2.47507245E-01  0.00000000E+00
  0.00000000E+00  0.00000000E+00  9.05304304E-01  0.00000000E+00  0.00000000E+00
  0.00000000E+00  2.26724590E-01  0.00000000E+00  0.00000000E+00  0.00000000E+00
 -2.51418083E-02  0.00000000E+00  0.00000000E+00  0.00000000E+00 -5.03460126E-03
  0.00000000E+00  0.00000000E+00 -8.72018517E-03  0.00000000E+00  0.00000000E+00
  0.00000000E+00  0.00000000E+00  4.55442736E-01  0.00000000E+00  0.00000000E+00
  0.00000000E+00  5.85890821E-01  0.00000000E+00  0.00000000E+00  0.00000000E+00
  1.25405462E-01  0.00000000E+00  0.00000000E+00  0.00000000E+00 -1.53086986E-02
  0.00000000E+00  0.00000000E+00  0.00000000E+00  0.00000000E+00  0.00000000E+00
  0.00000000E+00  0.00000000E+00  0.00000000E+00  0.00000000E+00  0.00000000E+00
  4.32318446E-01  0.00000000E+00  0.00000000E+00  0.00000000E+00  5.87927837E-01
  0.00000000E+00  0.00000000E+00  0.00000000E+00  1.56736173E-01  0.00000000E+00
  0.00000000E+00  0.00000000E+00 -1.94597282E-02  0.00000000E+00  0.00000000E+00
  0.00000000E+00  0.00000000E+00  0.00000000E+00  0.00000000E+00  0.00000000E+00
  4.32318446E-01  0.00000000E+00  0.00000000E+00  0.00000000E+00  5.87927837E-01
  0.00000000E+00  0.00000000E+00  0.00000000E+00  1.56736173E-01  0.00000000E+00
  0.00000000E+00  0.00000000E+00 -1.94597282E-02  0.00000000E+00  0.00000000E+00
  0.00000000E+00  0.00000000E+00  0.00000000E+00  0.00000000E+00  0.00000000E+00
  6.49229579E-02  1.17404819E-01  0.00000000E+00  0.00000000E+00  0.00000000E+00
 -7.57736127E-01  0.00000000E+00  0.00000000E+00  0.00000000E+00  2.60252985E-01
  0.00000000E+00  0.00000000E+00  0.00000000E+00  9.44099517E-01  0.00000000E+00
  0.00000000E+00  0.00000000E+00  2.19030889E-03  0.00000000E+00  0.00000000E+00
  3.79372628E-03  0.00000000E+00  0.00000000E+00  0.00000000E+00  0.00000000E+00
 -2.12577394E-01  0.00000000E+00  0.00000000E+00  0.00000000E+00 -3.08519053E-01
  0.00000000E+00  0.00000000E+00  0.00000000E+00  5.79477001E-01  0.00000000E+00
  0.00000000E+00  0.00000000E+00  5.85542044E-01  0.00000000E+00  0.00000000E+00
  0.00000000E+00  0.00000000E+00  0.00000000E+00  0.00000000E+00  0.00000000E+00
  0.00000000E+00  0.00000000E+00  0.00000000E+00 -2.12379857E-01  0.00000000E+00
  0.00000000E+00  0.00000000E+00 -3.24254700E-01  0.00000000E+00  0.00000000E+00
  0.00000000E+00  5.50593192E-01  0.00000000E+00  0.00000000E+00  0.00000000E+00
  6.10055711E-01  0.00000000E+00  0.00000000E+00  0.00000000E+00  0.00000000E+00
  0.00000000E+00  0.00000000E+00  0.00000000E+00 -2.12379857E-01  0.00000000E+00
  0.00000000E+00  0.00000000E+00 -3.24254700E-01  0.00000000E+00  0.00000000E+00
  0.00000000E+00  5.50593192E-01  0.00000000E+00  0.00000000E+00  0.00000000E+00
  6.10055711E-01  0.00000000E+00  0.00000000E+00  0.00000000E+00  0.00000000E+00
  0.00000000E+00  0.00000000E+00  0.00000000E+00  0.00000000E+00  0.00000000E+00
  0.00000000E+00 -2.27538267E-01  0.00000000E+00  0.00000000E+00  0.00000000E+00
 -4.10283339E-01  0.00000000E+00  0.00000000E+00  0.00000000E+00  1.55459361E+00
  0.00000000E+00  0.00000000E+00  0.00000000E+00 -1.32874668E+00  0.00000000E+00
  0.00000000E+00  0.00000000E+00  0.00000000E+00  0.00000000E+00  0.00000000E+00
  0.00000000E+00  0.00000000E+00  0.00000000E+00  0.00000000E+00 -2.31276478E-01
  0.00000000E+00  0.00000000E+00  0.00000000E+00 -4.38278110E-01  0.00000000E+00
  0.00000000E+00  0.00000000E+00  1.57035030E+00  0.00000000E+00  0.00000000E+00
  0.00000000E+00 -1.31930030E+00  0.00000000E+00  0.00000000E+00  0.00000000E+00
  0.00000000E+00  0.00000000E+00  0.00000000E+00  0.00000000E+00 -2.31276478E-01
  0.00000000E+00  0.00000000E+00  0.00000000E+00 -4.38278110E-01  0.00000000E+00
  0.00000000E+00  0.00000000E+00  1.57035030E+00  0.00000000E+00  0.00000000E+00
  0.00000000E+00 -1.31930030E+00  0.00000000E+00  0.00000000E+00  0.00000000E+00
  0.00000000E+00  0.00000000E+00  0.00000000E+00  0.00000000E+00  8.84486412E-02
  1.71858605E-01  0.00000000E+00  0.00000000E+00  0.00000000E+00 -1.49953187E+00
  0.00000000E+00  0.00000000E+00  0.00000000E+00  2.69556275E+00  0.00000000E+00
  0.00000000E+00  0.00000000E+00 -1.68363580E+00  0.00000000E+00  0.00000000E+00
  0.00000000E+00  4.40577601E-03  0.00000000E+00  0.00000000E+00  7.63102789E-03
  0.00000000E+00  0.00000000E+00  0.00000000E+00  0.00000000E+00  0.00000000E+00
  0.00000000E+00  0.00000000E+00  0.00000000E+00  0.00000000E+00  0.00000000E+00
  0.00000000E+00  0.00000000E+00  0.00000000E+00  0.00000000E+00  0.00000000E+00
  0.00000000E+00  0.00000000E+00  0.00000000E+00  0.00000000E+00  0.00000000E+00
  0.00000000E+00  0.00000000E+00  1.00000000E+00  0.00000000E+00  0.00000000E+00
  0.00000000E+00  0.00000000E+00  0.00000000E+00  0.00000000E+00  0.00000000E+00
  0.00000000E+00  0.00000000E+00  0.00000000E+00  0.00000000E+00  0.00000000E+00
  0.00000000E+00  0.00000000E+00  0.00000000E+00  0.00000000E+00  0.00000000E+00
  0.00000000E+00  0.00000000E+00  1.00000000E+00  0.00000000E+00  0.00000000E+00
 -2.21011835E-03 -4.32852276E-03  0.00000000E+00  0.00000000E+00  0.00000000E+00
  2.56634657E-02  0.00000000E+00  0.00000000E+00  0.00000000E+00 -2.26209877E-02
  0.00000000E+00  0.00000000E+00  0.00000000E+00  1.04513249E-02  0.00000000E+00
  0.00000000E+00  0.00000000E+00  4.99950361E-01  0.00000000E+00  0.00000000E+00
  8.65939426E-01  0.00000000E+00  2.72749032E-16  3.01536891E-16  0.00000000E+00
  0.00000000E+00  0.00000000E+00 -2.47881840E-15  0.00000000E+00  0.00000000E+00
  0.00000000E+00  3.20876325E-15  0.00000000E+00  0.00000000E+00  0.00000000E+00
 -1.44677714E-15  0.00000000E+00  0.00000000E+00  0.00000000E+00  8.66025404E-01
  0.00000000E+00  0.00000000E+00 -5.00000000E-01  0.00000000E+00  0.00000000E+00
  0.00000000E+00  0.00000000E+00  0.00000000E+00  0.00000000E+00  0.00000000E+00
  0.00000000E+00  0.00000000E+00  0.00000000E+00  0.00000000E+00  0.00000000E+00
  0.00000000E+00  0.00000000E+00  0.00000000E+00  0.00000000E+00  0.00000000E+00
  0.00000000E+00  0.00000000E+00  1.00000000E+00  0.00000000E+00  0.00000000E+00
  0.00000000E+00  0.00000000E+00  0.00000000E+00  0.00000000E+00 -1.22405152E+00
  0.00000000E+00  0.00000000E+00  0.00000000E+00  1.61560415E+00  0.00000000E+00
  0.00000000E+00  0.00000000E+00 -1.02728785E+00  0.00000000E+00  0.00000000E+00
  0.00000000E+00  4.02194300E-01  0.00000000E+00  0.00000000E+00  0.00000000E+00
  0.00000000E+00  0.00000000E+00  0.00000000E+00  0.00000000E+00  0.00000000E+00
 -1.23174663E+00  0.00000000E+00  0.00000000E+00  0.00000000E+00  1.60439188E+00
  0.00000000E+00  0.00000000E+00  0.00000000E+00 -1.01483132E+00  0.00000000E+00
  0.00000000E+00  0.00000000E+00  3.96638265E-01  0.00000000E+00  0.00000000E+00
  0.00000000E+00  0.00000000E+00  0.00000000E+00  0.00000000E+00  0.00000000E+00
  0.00000000E+00  0.00000000E+00  0.00000000E+00  0.00000000E+00 -1.23174663E+00
  0.00000000E+00  0.00000000E+00  0.00000000E+00  1.60439188E+00  0.00000000E+00
  0.00000000E+00  0.00000000E+00 -1.01483132E+00  0.00000000E+00  0.00000000E+00
  0.00000000E+00  3.96638265E-01  0.00000000E+00  0.00000000E+00  0.00000000E+00
  0.00000000E+00  0.00000000E+00 -2.24546835E+00  2.33107871E+00  0.00000000E+00
  0.00000000E+00  0.00000000E+00 -2.54100088E-01  0.00000000E+00  0.00000000E+00
  0.00000000E+00  2.35137143E-01  0.00000000E+00  0.00000000E+00  0.00000000E+00
 -9.42404950E-02  0.00000000E+00  0.00000000E+00  0.00000000E+00  1.60460502E-05
  0.00000000E+00  0.00000000E+00  2.77925742E-05  0.00000000E+00
Beta MO coefficients                       R   N=         484
  5.53017204E-01  4.70301255E-01  0.00000000E+00  0.00000000E+00  0.00000000E+00
  5.82191549E-03  0.00000000E+00  0.00000000E+00  0.00000000E+00 -2.42788434E-03
  0.00000000E+00  0.00000000E+00  0.00000000E+00  8.70154273E-04  0.00000000E+00
  0.00000000E+00  0.00000000E+00  2.14213244E-04  0.00000000E+00  0.00000000E+00
  3.71028222E-04  0.00000000E+00 -1.50460092E-01 -2.43875687E-01  0.00000000E+00
  0.00000000E+00  0.00000000E+00  8.85689824E-01  0.00000000E+00  0.00000000E+00
  0.00000000E+00  2.50382866E-01  0.00000000E+00  0.00000000E+00  0.00000000E+00
 -2.88039752E-02  0.00000000E+00  0.00000000E+00  0.00000000E+00  1.07060729E-02
  0.00000000E+00  0.00000000E+00  1.85434623E-02  0.00000000E+00  0.00000000E+00
  0.00000000E+00  0.00000000E+00  0.00000000E+00  4.30659098E-01  0.00000000E+00
  0.00000000E+00  0.00000000E+00  5.85484856E-01  0.00000000E+00  0.00000000E+00
  0.00000000E+00  1.63259510E-01  0.00000000E+00  0.00000000E+00  0.00000000E+00
 -2.03594649E-02  0.00000000E+00  0.00000000E+00  0.00000000E+00  0.00000000E+00
  0.00000000E+00  0.00000000E+00  0.00000000E+00  4.30659098E-01  0.00000000E+00
  0.00000000E+00  0.00000000E+00  5.85484856E-01  0.00000000E+00  0.00000000E+00
  0.00000000E+00  1.63259510E-01  0.00000000E+00  0.00000000E+00  0.00000000E+00
 -2.03594649E-02  0.00000000E+00  0.00000000E+00  0.00000000E+00  0.00000000E+00
  0.00000000E+00  0.00000000E+00  0.00000000E+00  0.00000000E+00  0.00000000E+00
  0.00000000E+00  4.23607513E-01  0.00000000E+00  0.00000000E+00  0.00000000E+00
  5.77532997E-01  0.00000000E+00  0.00000000E+00  0.00000000E+00  1.86386286E-01
  0.00000000E+00  0.00000000E+00  0.00000000E+00 -2.32874154E-02  0.00000000E+00
  0.00000000E+00  0.00000000E+00  0.00000000E+00  0.00000000E+00  0.00000000E+00
  6.42299322E-02  1.15560122E-01  0.00000000E+00  0.00000000E+00  0.00000000E+00
 -7.31871100E-01  0.00000000E+00  0.00000000E+00  0.00000000E+00  1.95993095E-01
  0.00000000E+00  0.00000000E+00  0.00000000E+00  9.82734051E-01  0.00000000E+00
  0.00000000E+00  0.00000000E+00 -3.43674500E-03  0.00000000E+00  0.00000000E+00
 -5.95261695E-03  0.00000000E+00  0.00000000E+00  0.00000000E+00  0.00000000E+00
  0.00000000E+00 -2.10385138E-01  0.00000000E+00  0.00000000E+00  0.00000000E+00
 -3.23259291E-01  0.00000000E+00  0.00000000E+00  0.00000000E+00  5.32857124E-01
  0.00000000E+00  0.00000000E+00  0.00000000E+00  6.24831635E-01  0.00000000E+00
  0.00000000E+00  0.00000000E+00  0.00000000E+00  0.00000000E+00  0.00000000E+00
  0.00000000E+00 -2.10385138E-01  0.00000000E+00  0.00000000E+00  0.00000000E+00
 -3.23259291E-01  0.00000000E+00  0.00000000E+00  0.00000000E+00  5.32857124E-01
  0.00000000E+00  0.00000000E+00  0.00000000E+00  6.24831635E-01  0.00000000E+00
  0.00000000E+00  0.00000000E+00  0.00000000E+00  0.00000000E+00  0.00000000E+00
  0.00000000E+00  0.00000000E+00  0.00000000E+00  0.00000000E+00 -2.03593489E-01
  0.00000000E+00  0.00000000E+00  0.00000000E+00 -3.21352987E-01  0.00000000E+00
  0.00000000E+00  0.00000000E+00  4.75024550E-01  0.00000000E+00  0.00000000E+00
  0.00000000E+00  6.71966822E-01  0.00000000E+00  0.00000000E+00  0.00000000E+00
  0.00000000E+00  0.00000000E+00  0.00000000E+00  0.00000000E+00  0.00000000E+00
  0.00000000E+00  0.00000000E+00 -2.32546013E-01  0.00000000E+00  0.00000000E+00
  0.00000000E+00 -4.46617315E-01  0.00000000E+00  0.00000000E+00  0.00000000E+00
  1.57803271E+00  0.00000000E+00  0.00000000E+00  0.00000000E+00 -1.31292227E+00
  0.00000000E+00  0.00000000E+00  0.00000000E+00  0.00000000E+00  0.00000000E+00
  0.00000000E+00  0.00000000E+00 -2.32546013E-01  0.00000000E+00  0.00000000E+00
  0.00000000E+00 -4.46617315E-01  0.00000000E+00  0.00000000E+00  0.00000000E+00
  1.57803271E+00  0.00000000E+00  0.00000000E+00  0.00000000E+00 -1.31292227E+00
  0.00000000E+00  0.00000000E+00  0.00000000E+00  0.00000000E+00  0.00000000E+00
  0.00000000E+00  0.00000000E+00  0.00000000E+00  0.00000000E+00  0.00000000E+00
 -2.36301470E-01  0.00000000E+00  0.00000000E+00  0.00000000E+00 -4.75401222E-01
  0.00000000E+00  0.00000000E+00  0.00000000E+00  1.60171078E+00  0.00000000E+00
  0.00000000E+00  0.00000000E+00 -1.29129145E+00  0.00000000E+00  0.00000000E+00
  0.00000000E+00  0.00000000E+00  0.00000000E+00  0.00000000E+00  9.08875177E-02
  1.76171399E-01  0.00000000E+00  0.00000000E+00  0.00000000E+00 -1.52363604E+00
  0.00000000E+00  0.00000000E+00  0.00000000E+00  2.69893389E+00  0.00000000E+00
  0.00000000E+00  0.00000000E+00 -1.66134183E+00  0.00000000E+00  0.00000000E+00
  0.00000000E+00 -4.22222926E-03  0.00000000E+00  0.00000000E+00 -7.31311560E-03
  0.00000000E+00  0.00000000E+00  0.00000000E+00  0.00000000E+00  0.00000000E+00
  0.00000000E+00  0.00000000E+00  0.00000000E+00  0.00000000E+00  0.00000000E+00
  0.00000000E+00  0.00000000E+00  0.00000000E+00  0.00000000E+00  0.00000000E+00
  0.00000000E+00  0.00000000E+00  0.00000000E+00  0.00000000E+00  1.00000000E+00
  0.00000000E+00  0.00000000E+00  0.00000000E+00  1.90539462E-16  2.54365437E-16
  0.00000000E+00  0.00000000E+00  0.00000000E+00 -2.80513780E-15  0.00000000E+00
  0.00000000E+00  0.00000000E+00  3.94773943E-15  0.00000000E+00  0.00000000E+00
  0.00000000E+00 -2.05766477E-15  0.00000000E+00  0.00000000E+00  0.00000000E+00
  8.66025404E-01  0.00000000E+00  0.00000000E+00 -5.00000000E-01  0.00000000E+00
  0.00000000E+00  0.00000000E+00  0.00000000E+00  0.00000000E+00  0.00000000E+00
  0.00000000E+00  0.00000000E+00  0.00000000E+00  0.00000000E+00  0.00000000E+00
  0.00000000E+00  0.00000000E+00  0.00000000E+00  0.00000000E+00  0.00000000E+00
  0.00000000E+00  0.00000000E+00  0.00000000E+00  0.00000000E+00  0.00000000E+00
  0.00000000E+00  1.00000000E+00  0.00000000E+00  0.00000000E+00  0.00000000E+00
  0.00000000E+00  0.00000000E+00  0.00000000E+00  0.00000000E+00  0.00000000E+00
  0.00000000E+00  0.00000000E+00  0.00000000E+00  0.00000000E+00  0.00000000E+00
  0.00000000E+00  0.00000000E+00  0.00000000E+00  0.00000000E+00  0.00000000E+00
  0.00000000E+00  1.00000000E+00  0.00000000E+00  0.00000000E+00  4.82981813E-03
  6.64527620E-03  0.00000000E+00  0.00000000E+00  0.00000000E+00 -3.68025308E-02
  0.00000000E+00  0.00000000E+00  0.00000000E+00  1.87169232E-02  0.00000000E+00
  0.00000000E+00  0.00000000E+00 -6.63321329E-03  0.00000000E+00  0.00000000E+00
  0.00000000E+00  4.99855655E-01  0.00000000E+00  0.00000000E+00  8.65775391E-01
  0.00000000E+00  0.00000000E+00  0.00000000E+00  0.00000000E+00  0.00000000E+00
 -1.23243102E+00  0.00000000E+00  0.00000000E+00  0.00000000E+00  1.60318594E+00
  0.00000000E+00  0.00000000E+00  0.00000000E+00 -1.01134769E+00  0.00000000E+00
  0.00000000E+00  0.00000000E+00  3.94750391E-01  0.00000000E+00  0.00000000E+00
  0.00000000E+00  0.00000000E+00  0.00000000E+00  0.00000000E+00  0.00000000E+00
 -1.23243102E+00  0.00000000E+00  0.00000000E+00  0.00000000E+00  1.60318594E+00
  0.00000000E+00  0.00000000E+00  0.00000000E+00 -1.01134769E+00  0.00000000E+00
  0.00000000E+00  0.00000000E+00  3.94750391E-01  0.00000000E+00  0.00000000E+00
  0.00000000E+00  0.00000000E+00  0.00000000E+00  0.00000000E+00  0.00000000E+00
  0.00000000E+00  0.00000000E+00  0.00000000E+00 -1.23529794E+00  0.00000000E+00
  0.00000000E+00  0.00000000E+00  1.59816859E+00  0.00000000E+00  0.00000000E+00
  0.00000000E+00 -9.98867447E-01  0.00000000E+00  0.00000000E+00  0.00000000E+00
  3.88466882E-01  0.00000000E+00  0.00000000E+00  0.00000000E+00  0.00000000E+00
  0.00000000E+00  0.00000000E+00 -2.24523639E+00  2.33130349E+00  0.00000000E+00
  0.00000000E+00  0.00000000E+00 -2.54337284E-01  0.00000000E+00  0.00000000E+00
  0.00000000E+00  2.35164237E-01  0.00000000E+00  0.00000000E+00  0.00000000E+00
 -9.42353205E-02  0.00000000E+00  0.00000000E+00  0.00000000E+00  1.41343227E-04
  0.00000000E+00  0.00000000E+00  2.44813651E-04  0.00000000E+00
Orthonormal basis                          R   N=         484
  2.40254389E-01  2.48108308E-01  0.00000000E+00  0.00000000E+00  0.00000000E+00
  3.12714494E-01  0.00000000E+00  0.00000000E+00  0.00000000E+00  3.09388206E-01
  0.00000000E+00  0.00000000E+00  0.00000000E+00  2.48983539E-01  0.00000000E+00
  0.00000000E+00  0.00000000E+00  0.00000000E+00  0.00000000E+00  0.00000000E+00
  0.00000000E+00  0.00000000E+00  4.37612213E-01  4.31375527E-01  0.00000000E+00
  0.00000000E+00  0.00000000E+00 -8.77440131E-02  0.00000000E+00  0.00000000E+00
  0.00000000E+00 -3.15852006E-01  0.00000000E+00  0.00000000E+00  0.00000000E+00
 -3.49446382E-01  0.00000000E+00  0.00000000E+00  0.00000000E+00  0.00000000E+00
  0.00000000E+00  0.00000000E+00  0.00000000E+00  0.00000000E+00  0.00000000E+00
  0.00000000E+00  0.00000000E+00  0.00000000E+00  0.00000000E+00  0.00000000E+00
  0.00000000E+00  0.00000000E+00  0.00000000E+00  0.00000000E+00  0.00000000E+00
  0.00000000E+00  0.00000000E+00  0.00000000E+00  0.00000000E+00  0.00000000E+00
  0.00000000E+00  1.00000000E+00  0.00000000E+00  0.00000000E+00  0.00000000E+00
  0.00000000E+00  0.00000000E+00  0.00000000E+00  0.00000000E+00  0.00000000E+00
  0.00000000E+00  0.00000000E+00  0.00000000E+00  0.00000000E+00  0.00000000E+00
  0.00000000E+00  0.00000000E+00  0.00000000E+00  0.00000000E+00  0.00000000E+00
  0.00000000E+00  0.00000000E+00  0.00000000E+00  0.00000000E+00  0.00000000E+00
  0.00000000E+00  1.00000000E+00  0.00000000E+00 -2.92457799E-01 -1.77881569E-01
  0.00000000E+00  0.00000000E+00  0.00000000E+00  1.01803681E+00  0.00000000E+00
  0.00000000E+00  0.00000000E+00  6.58257692E-02  0.00000000E+00  0.00000000E+00
  0.00000000E+00 -9.00952799E-01  0.00000000E+00  0.00000000E+00  0.00000000E+00
  0.00000000E+00  0.00000000E+00  0.00000000E+00  0.00000000E+00  0.00000000E+00
  2.02231300E+00 -1.95618674E+00  0.00000000E+00  0.00000000E+00  0.00000000E+00
 -4.83547008E-01  0.00000000E+00  0.00000000E+00  0.00000000E+00  1.08069896E+00
  0.00000000E+00  0.00000000E+00  0.00000000E+00 -7.37666230E-01  0.00000000E+00
  0.00000000E+00  0.00000000E+00  0.00000000E+00  0.00000000E+00  0.00000000E+00
  0.00000000E+00  0.00000000E+00 -9.78495787E-01  1.28612528E+00  0.00000000E+00
  0.00000000E+00  0.00000000E+00 -1.52706199E+00  0.00000000E+00  0.00000000E+00
  0.00000000E+00  2.46440269E+00  0.00000000E+00  0.00000000E+00  0.00000000E+00
 -1.48175728E+00  0.00000000E+00  0.00000000E+00  0.00000000E+00  0.00000000E+00
  0.00000000E+00  0.00000000E+00  0.00000000E+00  0.00000000E+00  0.00000000E+00
  0.00000000E+00  0.00000000E+00  0.00000000E+00  0.00000000E+00  0.00000000E+00
  0.00000000E+00  0.00000000E+00  0.00000000E+00  0.00000000E+00  0.00000000E+00
  0.00000000E+00  0.00000000E+00  0.00000000E+00  0.00000000E+00  0.00000000E+00
  0.00000000E+00  0.00000000E+00  0.00000000E+00  0.00000000E+00  0.00000000E+00
  1.00000000E+00  0.00000000E+00  0.00000000E+00  0.00000000E+00  0.00000000E+00
  0.00000000E+00  0.00000000E+00  0.00000000E+00  0.00000000E+00  0.00000000E+00
  0.00000000E+00  0.00000000E+00  0.00000000E+00  0.00000000E+00  0.00000000E+00
  0.00000000E+00  0.00000000E+00  0.00000000E+00  0.00000000E+00  1.00000000E+00
  0.00000000E+00  0.00000000E+00  0.00000000E+00  0.00000000E+00  0.00000000E+00
  0.00000000E+00  0.00000000E+00  0.00000000E+00  0.00000000E+00  0.00000000E+00
  0.00000000E+00  0.00000000E+00  0.00000000E+00  0.00000000E+00  0.00000000E+00
  0.00000000E+00  0.00000000E+00  0.00000000E+00  0.00000000E+00  0.00000000E+00
  0.00000000E+00  0.00000000E+00  1.00000000E+00  0.00000000E+00  0.00000000E+00
  0.00000000E+00  0.00000000E+00  0.00000000E+00  0.00000000E+00  2.55873991E-01
  0.00000000E+00  0.00000000E+00  0.00000000E+00  3.72870611E-01  0.00000000E+00
  0.00000000E+00  0.00000000E+00  3.88870282E-01  0.00000000E+00  0.00000000E+00
  0.00000000E+00  2.95582357E-01  0.00000000E+00  0.00000000E+00  0.00000000E+00
  0.00000000E+00  0.00000000E+00  0.00000000E+00  0.00000000E+00  0.00000000E+00
  0.00000000E+00  6.03851608E-01  0.00000000E+00  0.00000000E+00  0.00000000E+00
  3.22837419E-01  0.00000000E+00  0.00000000E+00  0.00000000E+00 -2.97177247E-01