fubar                                                                   
SP        UPBE1PBE                                                    6-311+G(d,p)        
Number of atoms                            I                1
Info1-9                                    I   N=           9
          11          10           0           0           0         110
           1          18       -1302
Full Title                                 C   N=           1
fubar       
Route                                      C   N=           3
#PBE1PBE/6-311+G(d,p) scf=tight     
Charge                                     I                1
Multiplicity                               I                4
Number of electrons                        I               15
Number of alpha electrons                  I                9
Number of beta electrons                   I                6
Number of basis functions                  I               30
Number of independent functions            I               30
Number of point charges in /Mol/           I                0
Number of translation vectors              I                0
Atomic numbers                             I   N=           1
          16
Nuclear charges                            R   N=           1
  1.60000000E+01
Current cartesian coordinates              R   N=           3
  0.00000000E+00  0.00000000E+00  0.00000000E+00
Number of symbols in /Mol/                 I                0
Int Atom Types                             I   N=           1
           0
Force Field                                I                0
Atom Types                                 C   N=           1
            
MM charges                                 R   N=           1
  0.00000000E+00
Integer atomic weights                     I   N=           1
          32
Real atomic weights                        R   N=           1
  3.19720718E+01
Atom fragment info                         I   N=           1
           0
Atom residue num                           I   N=           1
           0
Nuclear spins                              I   N=           1
           0
Nuclear ZEff                               R   N=           1
 -1.36000000E+01
Nuclear ZNuc                               R   N=           1
  1.60000000E+01
Nuclear QMom                               R   N=           1
  0.00000000E+00
Nuclear GFac                               R   N=           1
  0.00000000E+00
MicOpt                                     I   N=           1
          -1
Number of residues                         I                0
Number of secondary structures             I                0
SymInf integers                            I   N=          26
           1           8           1           1           1           1
          -1          -1          -1           1          -1          -1
          -1           1          -1          -1          -1          -1
           1           1           1          -1           1           1
           1          -1
RotTr to input orientation                 R   N=          12
  0.00000000E+00  0.00000000E+00 -1.00000000E+00  0.00000000E+00  1.00000000E+00
  0.00000000E+00  1.00000000E+00  0.00000000E+00  0.00000000E+00  0.00000000E+00
  0.00000000E+00  0.00000000E+00
Number of contracted shells                I               13
Number of primitive shells                 I               24
Pure/Cartesian d shells                    I                0
Pure/Cartesian f shells                    I                0
Highest angular momentum                   I                2
Largest degree of contraction              I                6
Shell types                                I   N=          13
           0           0           0           0           0           0
          -1           1           1           1           1           1
          -2
Number of primitives per shell             I   N=          13
           6           3           1           1           1           1
           1           4           2           1           1           1
           1
Shell to atom map                          I   N=          13
           1           1           1           1           1           1
           1           1           1           1           1           1
           1
Primitive exponents                        R   N=          24
  9.34134000E+04  1.39617000E+04  3.16991000E+03  9.02456000E+02  2.97158000E+02
  1.08702000E+02  1.08702000E+02  4.31553000E+01  1.81079000E+01  5.56009000E+00
  2.13183000E+00  4.20403000E-01  1.36045000E-01  4.05000000E-02  4.95040000E+02
  1.17221000E+02  3.77749000E+01  1.40584000E+01  5.56574000E+00  2.26297000E+00
  8.07994000E-01  2.77460000E-01  7.71410000E-02  6.50000000E-01
Contraction coefficients                   R   N=          24
  7.42999957E-04  5.79299966E-03  2.99539983E-02  1.19027993E-01  3.68431979E-01
  5.77298966E-01  1.43186060E-01  6.24465262E-01  2.83366119E-01  1.00000000E+00
  1.00000000E+00  1.00000000E+00  1.00000000E+00  1.00000000E+00  8.30900251E-03
  6.40240194E-02  2.77614084E-01  7.45076225E-01  6.13711672E-01  4.43817763E-01
  1.00000000E+00  1.00000000E+00  1.00000000E+00  1.00000000E+00
P(S=P) Contraction coefficients            R   N=          24
  0.00000000E+00  0.00000000E+00  0.00000000E+00  0.00000000E+00  0.00000000E+00
  0.00000000E+00  0.00000000E+00  0.00000000E+00  0.00000000E+00  0.00000000E+00
  0.00000000E+00  0.00000000E+00  0.00000000E+00  1.00000000E+00  0.00000000E+00
  0.00000000E+00  0.00000000E+00  0.00000000E+00  0.00000000E+00  0.00000000E+00
  0.00000000E+00  0.00000000E+00  0.00000000E+00  0.00000000E+00
Coordinates of each shell                  R   N=          39
  0.00000000E+00  0.00000000E+00  0.00000000E+00  0.00000000E+00  0.00000000E+00
  0.00000000E+00  0.00000000E+00  0.00000000E+00  0.00000000E+00  0.00000000E+00
  0.00000000E+00  0.00000000E+00  0.00000000E+00  0.00000000E+00  0.00000000E+00
  0.00000000E+00  0.00000000E+00  0.00000000E+00  0.00000000E+00  0.00000000E+00
  0.00000000E+00  0.00000000E+00  0.00000000E+00  0.00000000E+00  0.00000000E+00
  0.00000000E+00  0.00000000E+00  0.00000000E+00  0.00000000E+00  0.00000000E+00
  0.00000000E+00  0.00000000E+00  0.00000000E+00  0.00000000E+00  0.00000000E+00
  0.00000000E+00  0.00000000E+00  0.00000000E+00  0.00000000E+00
Num ILSW                                   I              100
ILSW                                       I   N=         100
           1           0           0           0           2           0
           0           0           0           0        1009          -1
           5           0           0           0           0           0
           0           0           0           0           0           0
           1           0           0           0           0           0
           0           0      100000           0          -1           0
           0           0           0           0           0           0
           0           0           0           1           0           0
           0 -2000000000           1           0           0           0
           0           0           4          52           0           0
           0           0          13           0           0           0
           0           0           0           1           0           1
           0           0           0           0           0           0
           0           0           0           0           0           0
           0           0           0           0           0           0
           0           0           0           0           0           0
           0           0           0           0
Num RLSW                                   I               52
RLSW                                       R   N=          52
  7.50000000E-01  7.50000000E-01  1.00000000E+00  1.00000000E+00  2.50000000E-01
  0.00000000E+00  0.00000000E+00  1.00000000E+00  0.00000000E+00  0.00000000E+00
  0.00000000E+00  0.00000000E+00  1.00000000E+00  0.00000000E+00  0.00000000E+00
  0.00000000E+00  0.00000000E+00  1.00000000E+00  0.00000000E+00  0.00000000E+00
  0.00000000E+00  0.00000000E+00  1.00000000E+00  0.00000000E+00  0.00000000E+00
  0.00000000E+00  0.00000000E+00  1.00000000E+00  0.00000000E+00  0.00000000E+00
  0.00000000E+00  0.00000000E+00  1.00000000E+00  0.00000000E+00  0.00000000E+00
  0.00000000E+00  0.00000000E+00  0.00000000E+00  1.00000000E+00  1.00000000E+00
  0.00000000E+00  1.00000000E+00  0.00000000E+00  0.00000000E+00  0.00000000E+00
  0.00000000E+00  0.00000000E+00  0.00000000E+00  0.00000000E+00  0.00000000E+00
  0.00000000E+00  0.00000000E+00
MxBond                                     I                1
NBond                                      I   N=           1
           0
IBond                                      I   N=           1
           0
RBond                                      R   N=           1
  0.00000000E+00
Virial Ratio                               R      2.001033770726397E+00
SCF Energy                                 R     -3.975926878925554E+02
Total Energy                               R     -3.975926878925554E+02
S**2                                       R      3.750290206694640E+00
S**2 after annihilation                    R      3.750000001840855E+00
RMS Density                                R      9.285030396014344E-10
Job Status                                 I                1
Nuclear derivative order                   I                0
External E-field                           R   N=          35
  0.00000000E+00  0.00000000E+00  0.00000000E+00  0.00000000E+00  0.00000000E+00
  0.00000000E+00  0.00000000E+00  0.00000000E+00  0.00000000E+00  0.00000000E+00
  0.00000000E+00  0.00000000E+00  0.00000000E+00  0.00000000E+00  0.00000000E+00
  0.00000000E+00  0.00000000E+00  0.00000000E+00  0.00000000E+00  0.00000000E+00
  0.00000000E+00  0.00000000E+00  0.00000000E+00  0.00000000E+00  0.00000000E+00
  0.00000000E+00  0.00000000E+00  0.00000000E+00  0.00000000E+00  0.00000000E+00
  0.00000000E+00  0.00000000E+00  0.00000000E+00  0.00000000E+00  0.00000000E+00
IOpCl                                      I                1
IROHF                                      I                0
Alpha Orbital Energies                     R   N=          30
 -8.95137382E+01 -8.48615640E+00 -6.42516625E+00 -6.42516625E+00 -6.42516625E+00
 -1.15149275E+00 -7.16493971E-01 -7.16493971E-01 -7.16493971E-01 -1.83394834E-01
 -1.14218994E-01 -1.14218994E-01 -1.14218994E-01  9.61069258E-02  9.61069258E-02
  9.61069258E-02  2.62520842E-01  3.03207196E-01  3.03207196E-01  3.03207196E-01
  3.03207196E-01  3.03207196E-01  1.26538881E+00  1.26538881E+00  1.26538881E+00
  7.15541189E+00  1.68888561E+01  1.68888561E+01  1.68888561E+01  1.88463033E+02
Beta Orbital Energies                      R   N=          30
 -8.94932450E+01 -8.46697167E+00 -6.39449450E+00 -6.39449450E+00 -6.39449450E+00
 -9.78194243E-01 -4.90073992E-01 -4.90073992E-01 -4.90073992E-01 -1.48828478E-01
 -8.61610200E-02 -8.61610200E-02 -8.61610200E-02  1.34153094E-01  1.34153094E-01
  1.34153094E-01  3.21912997E-01  4.48422017E-01  4.48422017E-01  4.48422017E-01
  4.48422017E-01  4.48422017E-01  1.34395191E+00  1.34395191E+00  1.34395191E+00
  7.19759038E+00  1.69292235E+01  1.69292235E+01  1.69292235E+01  1.88481018E+02
Alpha MO coefficients                      R   N=         900
  4.11021889E-01  6.54292244E-01  1.50911851E-02 -4.17421951E-03  1.36514620E-03
 -7.83822128E-04  2.42675723E-04  0.00000000E+00  0.00000000E+00  0.00000000E+00
  0.00000000E+00  0.00000000E+00  0.00000000E+00  0.00000000E+00  0.00000000E+00
  0.00000000E+00  0.00000000E+00  0.00000000E+00  0.00000000E+00  0.00000000E+00
  0.00000000E+00  0.00000000E+00  0.00000000E+00  0.00000000E+00  0.00000000E+00
  2.90682864E-16  0.00000000E+00  0.00000000E+00 -5.16997120E-16  0.00000000E+00
 -1.19770706E-01 -3.21319828E-01  5.21748297E-01  5.90716400E-01  4.95131066E-02
 -1.74972132E-02  4.96029328E-03  0.00000000E+00  0.00000000E+00  0.00000000E+00
  0.00000000E+00  0.00000000E+00  0.00000000E+00  0.00000000E+00  0.00000000E+00
  0.00000000E+00  0.00000000E+00  0.00000000E+00  0.00000000E+00  0.00000000E+00
  0.00000000E+00  0.00000000E+00  0.00000000E+00  0.00000000E+00  0.00000000E+00
  1.47291451E-17  0.00000000E+00  0.00000000E+00  1.47148625E-16  0.00000000E+00
  0.00000000E+00  0.00000000E+00  0.00000000E+00  0.00000000E+00  0.00000000E+00
  0.00000000E+00  0.00000000E+00  0.00000000E+00 -1.67062412E-03  0.00000000E+00
  0.00000000E+00  3.78140050E-01  0.00000000E+00  0.00000000E+00  7.08549090E-01
  0.00000000E+00  0.00000000E+00  5.63439638E-02  0.00000000E+00  0.00000000E+00
 -5.93111680E-03  0.00000000E+00  0.00000000E+00  3.20950583E-03  0.00000000E+00
  0.00000000E+00  0.00000000E+00  0.00000000E+00  0.00000000E+00  0.00000000E+00
  0.00000000E+00  0.00000000E+00  0.00000000E+00  0.00000000E+00  0.00000000E+00
  0.00000000E+00  0.00000000E+00  0.00000000E+00  0.00000000E+00 -1.67062412E-03
  0.00000000E+00  0.00000000E+00  3.78140050E-01  0.00000000E+00  0.00000000E+00
  7.08549090E-01  0.00000000E+00  0.00000000E+00  5.63439638E-02  0.00000000E+00
  0.00000000E+00 -5.93111680E-03  0.00000000E+00  0.00000000E+00  3.20950583E-03
  0.00000000E+00  0.00000000E+00  0.00000000E+00  0.00000000E+00  0.00000000E+00
  0.00000000E+00  0.00000000E+00  0.00000000E+00  0.00000000E+00  0.00000000E+00
  0.00000000E+00  0.00000000E+00 -1.67062412E-03  0.00000000E+00  0.00000000E+00
  3.78140050E-01  0.00000000E+00  0.00000000E+00  7.08549090E-01  0.00000000E+00
  0.00000000E+00  5.63439638E-02  0.00000000E+00  0.00000000E+00 -5.93111680E-03
  0.00000000E+00  0.00000000E+00  3.20950583E-03  0.00000000E+00  0.00000000E+00
  0.00000000E+00  0.00000000E+00  0.00000000E+00  0.00000000E+00  0.00000000E+00
  3.82250114E-02  1.08690933E-01 -2.30429645E-01 -4.21985569E-01  8.21000078E-01
  4.19467894E-01 -3.75101947E-02  0.00000000E+00  0.00000000E+00  0.00000000E+00
  0.00000000E+00  0.00000000E+00  0.00000000E+00  0.00000000E+00  0.00000000E+00
  0.00000000E+00  0.00000000E+00  0.00000000E+00  0.00000000E+00  0.00000000E+00
  0.00000000E+00  0.00000000E+00  0.00000000E+00  0.00000000E+00  0.00000000E+00
  2.63929800E-16  0.00000000E+00  0.00000000E+00  1.11974221E-16  0.00000000E+00
  0.00000000E+00  0.00000000E+00  0.00000000E+00  0.00000000E+00  0.00000000E+00
  0.00000000E+00  0.00000000E+00  0.00000000E+00 -3.88082660E-02  0.00000000E+00
  0.00000000E+00 -1.15715638E-01  0.00000000E+00  0.00000000E+00 -2.23583613E-01
  0.00000000E+00  0.00000000E+00  3.39278569E-01  0.00000000E+00  0.00000000E+00
  6.80083557E-01  0.00000000E+00  0.00000000E+00  1.68769658E-01  0.00000000E+00
  0.00000000E+00  0.00000000E+00  0.00000000E+00  0.00000000E+00  0.00000000E+00
  0.00000000E+00  0.00000000E+00  0.00000000E+00  0.00000000E+00  0.00000000E+00
  0.00000000E+00  0.00000000E+00 -3.88082660E-02  0.00000000E+00  0.00000000E+00
 -1.15715638E-01  0.00000000E+00  0.00000000E+00 -2.23583613E-01  0.00000000E+00
  0.00000000E+00  3.39278569E-01  0.00000000E+00  0.00000000E+00  6.80083557E-01
  0.00000000E+00  0.00000000E+00  1.68769658E-01  0.00000000E+00  0.00000000E+00
  0.00000000E+00  0.00000000E+00  0.00000000E+00  0.00000000E+00  0.00000000E+00
  0.00000000E+00  0.00000000E+00  0.00000000E+00  0.00000000E+00  0.00000000E+00
  0.00000000E+00  0.00000000E+00  0.00000000E+00  0.00000000E+00 -3.88082660E-02
  0.00000000E+00  0.00000000E+00 -1.15715638E-01  0.00000000E+00  0.00000000E+00
 -2.23583613E-01  0.00000000E+00  0.00000000E+00  3.39278569E-01  0.00000000E+00
  0.00000000E+00  6.80083557E-01  0.00000000E+00  0.00000000E+00  1.68769658E-01
  0.00000000E+00  0.00000000E+00  0.00000000E+00  0.00000000E+00  0.00000000E+00
 -1.31992812E-02 -3.77798883E-02  8.25054837E-02  1.64434871E-01 -4.63142769E-01
 -4.22877182E-01  1.31147465E+00  0.00000000E+00  0.00000000E+00  0.00000000E+00
  0.00000000E+00  0.00000000E+00  0.00000000E+00  0.00000000E+00  0.00000000E+00
  0.00000000E+00  0.00000000E+00  0.00000000E+00  0.00000000E+00  0.00000000E+00
  0.00000000E+00  0.00000000E+00  0.00000000E+00  0.00000000E+00  0.00000000E+00
  3.07444975E-16  0.00000000E+00  0.00000000E+00 -2.68785602E-15  0.00000000E+00
  0.00000000E+00  0.00000000E+00  0.00000000E+00  0.00000000E+00  0.00000000E+00
  0.00000000E+00  0.00000000E+00  1.16704938E+00  0.00000000E+00  0.00000000E+00
  3.79514926E-02  0.00000000E+00  0.00000000E+00  7.44546248E-02  0.00000000E+00
  0.00000000E+00 -1.42020286E-01  0.00000000E+00  0.00000000E+00 -2.63916187E-01
  0.00000000E+00  0.00000000E+00 -1.55303354E-01  0.00000000E+00  0.00000000E+00
  0.00000000E+00  0.00000000E+00  0.00000000E+00  0.00000000E+00  0.00000000E+00
  0.00000000E+00  0.00000000E+00  0.00000000E+00  0.00000000E+00  0.00000000E+00
  0.00000000E+00  0.00000000E+00  0.00000000E+00  1.16704938E+00  0.00000000E+00
  0.00000000E+00  3.79514926E-02  0.00000000E+00  0.00000000E+00  7.44546248E-02
  0.00000000E+00  0.00000000E+00 -1.42020286E-01  0.00000000E+00  0.00000000E+00
 -2.63916187E-01  0.00000000E+00  0.00000000E+00 -1.55303354E-01  0.00000000E+00
  0.00000000E+00  0.00000000E+00  0.00000000E+00  0.00000000E+00  0.00000000E+00
  0.00000000E+00  0.00000000E+00  0.00000000E+00  0.00000000E+00  0.00000000E+00
  0.00000000E+00  0.00000000E+00  0.00000000E+00  0.00000000E+00  1.16704938E+00
  0.00000000E+00  0.00000000E+00  3.79514926E-02  0.00000000E+00  0.00000000E+00
  7.44546248E-02  0.00000000E+00  0.00000000E+00 -1.42020286E-01  0.00000000E+00
  0.00000000E+00 -2.63916187E-01  0.00000000E+00  0.00000000E+00 -1.55303354E-01
  0.00000000E+00  0.00000000E+00  0.00000000E+00  0.00000000E+00  0.00000000E+00
  0.00000000E+00  0.00000000E+00  0.00000000E+00  0.00000000E+00  0.00000000E+00
  0.00000000E+00  0.00000000E+00 -2.07269046E+00  0.00000000E+00  0.00000000E+00
  5.99679367E-02  0.00000000E+00  0.00000000E+00  1.09569651E-01  0.00000000E+00
  0.00000000E+00 -1.71122940E-01  0.00000000E+00  0.00000000E+00 -7.97951609E-01
  0.00000000E+00  0.00000000E+00  2.73521356E+00  0.00000000E+00  0.00000000E+00
  0.00000000E+00  0.00000000E+00  0.00000000E+00  0.00000000E+00  0.00000000E+00
  0.00000000E+00  0.00000000E+00  0.00000000E+00  0.00000000E+00  0.00000000E+00
  0.00000000E+00  0.00000000E+00  0.00000000E+00 -2.07269046E+00  0.00000000E+00
  0.00000000E+00  5.99679367E-02  0.00000000E+00  0.00000000E+00  1.09569651E-01
  0.00000000E+00  0.00000000E+00 -1.71122940E-01  0.00000000E+00  0.00000000E+00
 -7.97951609E-01  0.00000000E+00  0.00000000E+00  2.73521356E+00  0.00000000E+00
  0.00000000E+00  0.00000000E+00  0.00000000E+00  0.00000000E+00  0.00000000E+00
  0.00000000E+00  0.00000000E+00  0.00000000E+00  0.00000000E+00  0.00000000E+00
  0.00000000E+00  0.00000000E+00  0.00000000E+00  0.00000000E+00 -2.07269046E+00
  0.00000000E+00  0.00000000E+00  5.99679367E-02  0.00000000E+00  0.00000000E+00
  1.09569651E-01  0.00000000E+00  0.00000000E+00 -1.71122940E-01  0.00000000E+00
  0.00000000E+00 -7.97951609E-01  0.00000000E+00  0.00000000E+00  2.73521356E+00
  0.00000000E+00  0.00000000E+00  0.00000000E+00  0.00000000E+00  0.00000000E+00
 -2.96382725E-02 -8.19275328E-02  1.52869067E-01  5.08805702E-01 -2.23532509E+00
  2.85220418E+00 -1.28955951E+00  0.00000000E+00  0.00000000E+00  0.00000000E+00
  0.00000000E+00  0.00000000E+00  0.00000000E+00  0.00000000E+00  0.00000000E+00
  0.00000000E+00  0.00000000E+00  0.00000000E+00  0.00000000E+00  0.00000000E+00
  0.00000000E+00  0.00000000E+00  0.00000000E+00  0.00000000E+00  0.00000000E+00
 -1.58735618E-14  0.00000000E+00  0.00000000E+00  8.71015997E-15  0.00000000E+00
  0.00000000E+00  0.00000000E+00  0.00000000E+00  0.00000000E+00  0.00000000E+00
  0.00000000E+00  0.00000000E+00  0.00000000E+00  0.00000000E+00  0.00000000E+00
  0.00000000E+00  0.00000000E+00  0.00000000E+00  0.00000000E+00  0.00000000E+00
  0.00000000E+00  0.00000000E+00  0.00000000E+00  0.00000000E+00  0.00000000E+00
  0.00000000E+00  0.00000000E+00  0.00000000E+00  0.00000000E+00  0.00000000E+00
  0.00000000E+00  0.00000000E+00  0.00000000E+00  0.00000000E+00  1.00000000E+00
  0.00000000E+00  0.00000000E+00  0.00000000E+00  0.00000000E+00  0.00000000E+00
  0.00000000E+00  0.00000000E+00  0.00000000E+00  0.00000000E+00  0.00000000E+00
  0.00000000E+00  0.00000000E+00  0.00000000E+00  0.00000000E+00  0.00000000E+00
  0.00000000E+00  0.00000000E+00  0.00000000E+00  0.00000000E+00  0.00000000E+00
  0.00000000E+00  0.00000000E+00  0.00000000E+00  0.00000000E+00  0.00000000E+00
  0.00000000E+00  1.00000000E+00  0.00000000E+00  0.00000000E+00  0.00000000E+00
  0.00000000E+00  0.00000000E+00  0.00000000E+00  0.00000000E+00  0.00000000E+00
  0.00000000E+00  0.00000000E+00  0.00000000E+00  0.00000000E+00  0.00000000E+00
  0.00000000E+00  0.00000000E+00  0.00000000E+00  0.00000000E+00  0.00000000E+00
  0.00000000E+00  0.00000000E+00  0.00000000E+00  0.00000000E+00  0.00000000E+00
  0.00000000E+00  0.00000000E+00  0.00000000E+00  0.00000000E+00  0.00000000E+00
  0.00000000E+00  0.00000000E+00  1.00000000E+00  0.00000000E+00  0.00000000E+00
 -4.26725229E-16 -1.26155740E-15  3.34337293E-15  4.42429940E-15 -2.59178682E-14
  3.22366436E-14 -1.37780828E-14  0.00000000E+00  0.00000000E+00  0.00000000E+00
  0.00000000E+00  0.00000000E+00  0.00000000E+00  0.00000000E+00  0.00000000E+00
  0.00000000E+00  0.00000000E+00  0.00000000E+00  0.00000000E+00  0.00000000E+00
  0.00000000E+00  0.00000000E+00  0.00000000E+00  0.00000000E+00  0.00000000E+00
  9.33576335E-01  0.00000000E+00  0.00000000E+00  3.58378607E-01  0.00000000E+00
  4.33639087E-16  1.15467934E-15 -1.80765732E-15 -7.58591784E-15  3.18265211E-14
 -4.30454754E-14  2.24849943E-14  0.00000000E+00  0.00000000E+00  0.00000000E+00
  0.00000000E+00  0.00000000E+00  0.00000000E+00  0.00000000E+00  0.00000000E+00
  0.00000000E+00  0.00000000E+00  0.00000000E+00  0.00000000E+00  0.00000000E+00
  0.00000000E+00  0.00000000E+00  0.00000000E+00  0.00000000E+00  0.00000000E+00
 -3.58378607E-01  0.00000000E+00  0.00000000E+00  9.33576335E-01  0.00000000E+00
  0.00000000E+00  0.00000000E+00  0.00000000E+00  0.00000000E+00  0.00000000E+00
  0.00000000E+00  0.00000000E+00  0.00000000E+00  8.17370101E-01  0.00000000E+00
  0.00000000E+00  1.68818632E-01  0.00000000E+00  0.00000000E+00  4.05153799E-01
  0.00000000E+00  0.00000000E+00 -1.77590131E+00  0.00000000E+00  0.00000000E+00
  2.01054991E+00  0.00000000E+00  0.00000000E+00 -1.53017127E+00  0.00000000E+00
  0.00000000E+00  0.00000000E+00  0.00000000E+00  0.00000000E+00  0.00000000E+00
  0.00000000E+00  0.00000000E+00  0.00000000E+00  0.00000000E+00  0.00000000E+00
  0.00000000E+00  0.00000000E+00  8.17370101E-01  0.00000000E+00  0.00000000E+00
  1.68818632E-01  0.00000000E+00  0.00000000E+00  4.05153799E-01  0.00000000E+00
  0.00000000E+00 -1.77590131E+00  0.00000000E+00  0.00000000E+00  2.01054991E+00
  0.00000000E+00  0.00000000E+00 -1.53017127E+00  0.00000000E+00  0.00000000E+00
  0.00000000E+00  0.00000000E+00  0.00000000E+00  0.00000000E+00  0.00000000E+00
  0.00000000E+00  0.00000000E+00  0.00000000E+00  0.00000000E+00  0.00000000E+00
  0.00000000E+00  0.00000000E+00  0.00000000E+00  0.00000000E+00  8.17370101E-01
  0.00000000E+00  0.00000000E+00  1.68818632E-01  0.00000000E+00  0.00000000E+00
  4.05153799E-01  0.00000000E+00  0.00000000E+00 -1.77590131E+00  0.00000000E+00
  0.00000000E+00  2.01054991E+00  0.00000000E+00  0.00000000E+00 -1.53017127E+00
  0.00000000E+00  0.00000000E+00  0.00000000E+00  0.00000000E+00  0.00000000E+00
  1.14723422E-01  4.53645035E-01 -2.51366477E+00  2.87270666E+00 -1.55280220E+00
  9.23818567E-01 -2.85626202E-01  0.00000000E+00  0.00000000E+00  0.00000000E+00
  0.00000000E+00  0.00000000E+00  0.00000000E+00  0.00000000E+00  0.00000000E+00
  0.00000000E+00  0.00000000E+00  0.00000000E+00  0.00000000E+00  0.00000000E+00
  0.00000000E+00  0.00000000E+00  0.00000000E+00  0.00000000E+00  0.00000000E+00
 -6.69141668E-17  0.00000000E+00  0.00000000E+00 -4.26856804E-17  0.00000000E+00
  0.00000000E+00  0.00000000E+00  0.00000000E+00  0.00000000E+00  0.00000000E+00
  0.00000000E+00  0.00000000E+00  0.00000000E+00  0.00000000E+00  1.83879959E-01
  0.00000000E+00  0.00000000E+00 -1.21176508E+00  0.00000000E+00  0.00000000E+00
  1.37356830E+00  0.00000000E+00  0.00000000E+00 -9.37768224E-01  0.00000000E+00
  0.00000000E+00  5.65266063E-01  0.00000000E+00  0.00000000E+00 -3.47196569E-01
  0.00000000E+00  0.00000000E+00  0.00000000E+00  0.00000000E+00  0.00000000E+00
  0.00000000E+00  0.00000000E+00  0.00000000E+00  0.00000000E+00  0.00000000E+00
  0.00000000E+00  0.00000000E+00  0.00000000E+00  1.83879959E-01  0.00000000E+00
  0.00000000E+00 -1.21176508E+00  0.00000000E+00  0.00000000E+00  1.37356830E+00
  0.00000000E+00  0.00000000E+00 -9.37768224E-01  0.00000000E+00  0.00000000E+00
  5.65266063E-01  0.00000000E+00  0.00000000E+00 -3.47196569E-01  0.00000000E+00
  0.00000000E+00  0.00000000E+00  0.00000000E+00  0.00000000E+00  0.00000000E+00
  0.00000000E+00  0.00000000E+00  0.00000000E+00  0.00000000E+00  0.00000000E+00
  0.00000000E+00  0.00000000E+00  1.83879959E-01  0.00000000E+00  0.00000000E+00
 -1.21176508E+00  0.00000000E+00  0.00000000E+00  1.37356830E+00  0.00000000E+00
  0.00000000E+00 -9.37768224E-01  0.00000000E+00  0.00000000E+00  5.65266063E-01
  0.00000000E+00  0.00000000E+00 -3.47196569E-01  0.00000000E+00  0.00000000E+00
  0.00000000E+00  0.00000000E+00  0.00000000E+00  0.00000000E+00  0.00000000E+00
 -1.53761261E+00  1.87586790E+00 -1.34041842E+00  8.64381171E-01 -3.31221509E-01
  1.90593380E-01 -5.92560713E-02  0.00000000E+00  0.00000000E+00  0.00000000E+00
  0.00000000E+00  0.00000000E+00  0.00000000E+00  0.00000000E+00  0.00000000E+00
  0.00000000E+00  0.00000000E+00  0.00000000E+00  0.00000000E+00  0.00000000E+00
  0.00000000E+00  0.00000000E+00  0.00000000E+00  0.00000000E+00  0.00000000E+00
  1.43670647E-16  0.00000000E+00  0.00000000E+00 -2.25057403E-16  0.00000000E+00
Beta MO coefficients                       R   N=         900
  4.11127576E-01  6.54276835E-01  1.48567591E-02 -4.04559802E-03  1.34404580E-03
 -7.61379677E-04  2.36067900E-04  0.00000000E+00  0.00000000E+00  0.00000000E+00
  0.00000000E+00  0.00000000E+00  0.00000000E+00  0.00000000E+00  0.00000000E+00
  0.00000000E+00  0.00000000E+00  0.00000000E+00  0.00000000E+00  0.00000000E+00
  0.00000000E+00  0.00000000E+00  0.00000000E+00  0.00000000E+00  0.00000000E+00
 -3.96028047E-16  0.00000000E+00  0.00000000E+00  9.83854124E-17  0.00000000E+00
 -1.19666859E-01 -3.21051767E-01  5.19711971E-01  5.94493907E-01  4.57968327E-02
 -1.65759424E-02  4.65651076E-03  0.00000000E+00  0.00000000E+00  0.00000000E+00
  0.00000000E+00  0.00000000E+00  0.00000000E+00  0.00000000E+00  0.00000000E+00
  0.00000000E+00  0.00000000E+00  0.00000000E+00  0.00000000E+00  0.00000000E+00
  0.00000000E+00  0.00000000E+00  0.00000000E+00  0.00000000E+00  0.00000000E+00
 -1.53264315E-16  0.00000000E+00  0.00000000E+00 -4.09153246E-16  0.00000000E+00
  0.00000000E+00  0.00000000E+00  0.00000000E+00  0.00000000E+00  0.00000000E+00
  0.00000000E+00  0.00000000E+00  0.00000000E+00 -1.97576565E-03  0.00000000E+00
  0.00000000E+00  3.76727795E-01  0.00000000E+00  0.00000000E+00  7.10083086E-01
  0.00000000E+00  0.00000000E+00  5.59624545E-02  0.00000000E+00  0.00000000E+00
 -6.88600725E-03  0.00000000E+00  0.00000000E+00  3.77170537E-03  0.00000000E+00
  0.00000000E+00  0.00000000E+00  0.00000000E+00  0.00000000E+00  0.00000000E+00
  0.00000000E+00  0.00000000E+00  0.00000000E+00  0.00000000E+00  0.00000000E+00
  0.00000000E+00  0.00000000E+00 -1.97576565E-03  0.00000000E+00  0.00000000E+00
  3.76727795E-01  0.00000000E+00  0.00000000E+00  7.10083086E-01  0.00000000E+00
  0.00000000E+00  5.59624545E-02  0.00000000E+00  0.00000000E+00 -6.88600725E-03
  0.00000000E+00  0.00000000E+00  3.77170537E-03  0.00000000E+00  0.00000000E+00
  0.00000000E+00  0.00000000E+00  0.00000000E+00  0.00000000E+00  0.00000000E+00
  0.00000000E+00  0.00000000E+00  0.00000000E+00  0.00000000E+00  0.00000000E+00
  0.00000000E+00  0.00000000E+00  0.00000000E+00  0.00000000E+00 -1.97576565E-03
  0.00000000E+00  0.00000000E+00  3.76727795E-01  0.00000000E+00  0.00000000E+00
  7.10083086E-01  0.00000000E+00  0.00000000E+00  5.59624545E-02  0.00000000E+00
  0.00000000E+00 -6.88600725E-03  0.00000000E+00  0.00000000E+00  3.77170537E-03
  0.00000000E+00  0.00000000E+00  0.00000000E+00  0.00000000E+00  0.00000000E+00
  3.81220097E-02  1.09307722E-01 -2.39717214E-01 -4.01114878E-01  7.92399607E-01
  4.35568458E-01 -2.75323723E-02  0.00000000E+00  0.00000000E+00  0.00000000E+00
  0.00000000E+00  0.00000000E+00  0.00000000E+00  0.00000000E+00  0.00000000E+00
  0.00000000E+00  0.00000000E+00  0.00000000E+00  0.00000000E+00  0.00000000E+00
  0.00000000E+00  0.00000000E+00  0.00000000E+00  0.00000000E+00  0.00000000E+00
 -9.99628128E-16  0.00000000E+00  0.00000000E+00  2.38928307E-16  0.00000000E+00
  0.00000000E+00  0.00000000E+00  0.00000000E+00  0.00000000E+00  0.00000000E+00
  0.00000000E+00  0.00000000E+00  0.00000000E+00 -6.46600954E-02  0.00000000E+00
  0.00000000E+00 -1.10064817E-01  0.00000000E+00  0.00000000E+00 -2.09492978E-01
  0.00000000E+00  0.00000000E+00  3.12503348E-01  0.00000000E+00  0.00000000E+00
  6.31228177E-01  0.00000000E+00  0.00000000E+00  2.86724888E-01  0.00000000E+00
  0.00000000E+00  0.00000000E+00  0.00000000E+00  0.00000000E+00  0.00000000E+00
  0.00000000E+00  0.00000000E+00  0.00000000E+00  0.00000000E+00  0.00000000E+00
  0.00000000E+00  0.00000000E+00 -6.46600954E-02  0.00000000E+00  0.00000000E+00
 -1.10064817E-01  0.00000000E+00  0.00000000E+00 -2.09492978E-01  0.00000000E+00
  0.00000000E+00  3.12503348E-01  0.00000000E+00  0.00000000E+00  6.31228177E-01
  0.00000000E+00  0.00000000E+00  2.86724888E-01  0.00000000E+00  0.00000000E+00
  0.00000000E+00  0.00000000E+00  0.00000000E+00  0.00000000E+00  0.00000000E+00