fubar                                                                   
SP        RPBE1PBE                                                    6-311+G(d,p)        
Number of atoms                            I                1
Info1-9                                    I   N=           9
          11          10           0           0           0         110
           1          18       -1302
Full Title                                 C   N=           1
fubar       
Route                                      C   N=           3
#PBE1PBE/6-311+G(d,p) scf=tight     
Charge                                     I               -1
Multiplicity                               I                1
Number of electrons                        I                4
Number of alpha electrons                  I                2
Number of beta electrons                   I                2
Number of basis functions                  I               22
Number of independent functions            I               22
Number of point charges in /Mol/           I                0
Number of translation vectors              I                0
Atomic numbers                             I   N=           1
           3
Nuclear charges                            R   N=           1
  3.00000000E+00
Current cartesian coordinates              R   N=           3
  0.00000000E+00  0.00000000E+00  0.00000000E+00
Number of symbols in /Mol/                 I                0
Int Atom Types                             I   N=           1
           0
Force Field                                I                0
Atom Types                                 C   N=           1
            
MM charges                                 R   N=           1
  0.00000000E+00
Integer atomic weights                     I   N=           1
           7
Real atomic weights                        R   N=           1
  7.01600450E+00
Atom fragment info                         I   N=           1
           0
Atom residue num                           I   N=           1
           0
Nuclear spins                              I   N=           1
           3
Nuclear ZEff                               R   N=           1
 -1.35000000E+00
Nuclear ZNuc                               R   N=           1
  3.00000000E+00
Nuclear QMom                               R   N=           1
 -4.01000000E+00
Nuclear GFac                               R   N=           1
  3.25642400E+00
MicOpt                                     I   N=           1
          -1
Number of residues                         I                0
Number of secondary structures             I                0
SymInf integers                            I   N=          26
           1           8           1           1           1           1
          -1          -1          -1           1          -1          -1
          -1           1          -1          -1          -1          -1
           1           1           1          -1           1           1
           1          -1
RotTr to input orientation                 R   N=          12
  0.00000000E+00  0.00000000E+00 -1.00000000E+00  0.00000000E+00  1.00000000E+00
  0.00000000E+00  1.00000000E+00  0.00000000E+00  0.00000000E+00  0.00000000E+00
  0.00000000E+00  0.00000000E+00
Number of contracted shells                I                6
Number of primitive shells                 I               13
Pure/Cartesian d shells                    I                0
Pure/Cartesian f shells                    I                0
Highest angular momentum                   I                2
Largest degree of contraction              I                6
Shell types                                I   N=           6
           0          -1          -1          -1          -1          -2
Number of primitives per shell             I   N=           6
           6           3           1           1           1           1
Shell to atom map                          I   N=           6
           1           1           1           1           1           1
Primitive exponents                        R   N=          13
  9.00460000E+02  1.34433000E+02  3.04365000E+01  8.62639000E+00  2.48332000E+00
  3.03179000E-01  4.86890000E+00  8.56924000E-01  2.43227000E-01  6.35070000E-02
  2.43683000E-02  7.40000000E-03  2.00000000E-01
Contraction coefficients                   R   N=          13
  2.28704037E-03  1.76350029E-02  8.73434143E-02  2.80977046E-01  6.58741108E-01
  1.18712019E-01  9.33292995E-02  9.43044995E-01 -2.79826999E-03  1.00000000E+00
  1.00000000E+00  1.00000000E+00  1.00000000E+00
P(S=P) Contraction coefficients            R   N=          13
  0.00000000E+00  0.00000000E+00  0.00000000E+00  0.00000000E+00  0.00000000E+00
  0.00000000E+00  3.27660966E-02  1.59791983E-01  8.85666908E-01  1.00000000E+00
  1.00000000E+00  1.00000000E+00  0.00000000E+00
Coordinates of each shell                  R   N=          18
  0.00000000E+00  0.00000000E+00  0.00000000E+00  0.00000000E+00  0.00000000E+00
  0.00000000E+00  0.00000000E+00  0.00000000E+00  0.00000000E+00  0.00000000E+00
  0.00000000E+00  0.00000000E+00  0.00000000E+00  0.00000000E+00  0.00000000E+00
  0.00000000E+00  0.00000000E+00  0.00000000E+00
Num ILSW                                   I              100
ILSW                                       I   N=         100
           0           0           0           0           2           0
           0           0           0           0        1009          -1
           5           0           0           0           0           0
           0           0           0           0           0           0
           1           0           0           0           0           0
           0           0      100000           0          -1           0
           0           0           0           0           0           0
           0           0           0           1           0           0
           0 -2000000000           1           0           0           0
           0           0           4          52           0           0
           0           0          13           0           0           0
           0           0           0           1           0           1
           0           0           0           0           0           0
           0           0           0           0           0           0
           0           0           0           0           0           0
           0           0           0           0           0           0
           0           0           0           0
Num RLSW                                   I               52
RLSW                                       R   N=          52
  7.50000000E-01  7.50000000E-01  1.00000000E+00  1.00000000E+00  2.50000000E-01
  0.00000000E+00  0.00000000E+00  1.00000000E+00  0.00000000E+00  0.00000000E+00
  0.00000000E+00  0.00000000E+00  1.00000000E+00  0.00000000E+00  0.00000000E+00
  0.00000000E+00  0.00000000E+00  1.00000000E+00  0.00000000E+00  0.00000000E+00
  0.00000000E+00  0.00000000E+00  1.00000000E+00  0.00000000E+00  0.00000000E+00
  0.00000000E+00  0.00000000E+00  1.00000000E+00  0.00000000E+00  0.00000000E+00
  0.00000000E+00  0.00000000E+00  1.00000000E+00  0.00000000E+00  0.00000000E+00
  0.00000000E+00  0.00000000E+00  0.00000000E+00  1.00000000E+00  1.00000000E+00
  0.00000000E+00  1.00000000E+00  0.00000000E+00  0.00000000E+00  0.00000000E+00
  0.00000000E+00  0.00000000E+00  0.00000000E+00  0.00000000E+00  0.00000000E+00
  0.00000000E+00  0.00000000E+00
MxBond                                     I                1
NBond                                      I   N=           1
           0
IBond                                      I   N=           1
           0
RBond                                      R   N=           1
  0.00000000E+00
Virial Ratio                               R      2.007715133745440E+00
SCF Energy                                 R     -7.484055545598612E+00
Total Energy                               R     -7.484055545598612E+00
RMS Density                                R      9.159306588086778E-10
Job Status                                 I                1
Nuclear derivative order                   I                0
External E-field                           R   N=          35
  0.00000000E+00  0.00000000E+00  0.00000000E+00  0.00000000E+00  0.00000000E+00
  0.00000000E+00  0.00000000E+00  0.00000000E+00  0.00000000E+00  0.00000000E+00
  0.00000000E+00  0.00000000E+00  0.00000000E+00  0.00000000E+00  0.00000000E+00
  0.00000000E+00  0.00000000E+00  0.00000000E+00  0.00000000E+00  0.00000000E+00
  0.00000000E+00  0.00000000E+00  0.00000000E+00  0.00000000E+00  0.00000000E+00
  0.00000000E+00  0.00000000E+00  0.00000000E+00  0.00000000E+00  0.00000000E+00
  0.00000000E+00  0.00000000E+00  0.00000000E+00  0.00000000E+00  0.00000000E+00
IOpCl                                      I                0
IROHF                                      I                0
Alpha Orbital Energies                     R   N=          22
 -1.87277463E+00  1.73513984E-02  6.75111514E-02  6.75111514E-02  6.75111514E-02
  7.84933546E-02  1.08372017E-01  1.08372017E-01  1.08372017E-01  2.07342825E-01
  2.15210103E-01  2.15210103E-01  2.15210103E-01  5.96820192E-01  5.96820192E-01
  5.96820192E-01  6.10219065E-01  6.10219065E-01  6.10219065E-01  6.10219065E-01
  6.10219065E-01  3.70290893E+00
Alpha MO coefficients                      R   N=         484
  6.15893508E-01  4.27631807E-01  0.00000000E+00  0.00000000E+00  0.00000000E+00
  1.63268811E-02  0.00000000E+00  0.00000000E+00  0.00000000E+00 -1.20121426E-02
  0.00000000E+00  0.00000000E+00  0.00000000E+00  3.63912873E-03  0.00000000E+00
  0.00000000E+00  0.00000000E+00  5.96952466E-17  0.00000000E+00  0.00000000E+00
  7.86212571E-16  0.00000000E+00 -7.91894332E-02 -1.16488114E-01  0.00000000E+00
  0.00000000E+00  0.00000000E+00  3.22604647E-01  0.00000000E+00  0.00000000E+00
  0.00000000E+00  4.65467503E-01  0.00000000E+00  0.00000000E+00  0.00000000E+00
  3.38283982E-01  0.00000000E+00  0.00000000E+00  0.00000000E+00 -7.61268601E-16
  0.00000000E+00  0.00000000E+00 -7.63241152E-17  0.00000000E+00  0.00000000E+00
  0.00000000E+00  9.00267927E-03  0.00000000E+00  0.00000000E+00  0.00000000E+00
  1.59155857E-01  0.00000000E+00  0.00000000E+00  0.00000000E+00 -3.01534520E-01
  0.00000000E+00  0.00000000E+00  0.00000000E+00  1.14049536E+00  0.00000000E+00
  0.00000000E+00  0.00000000E+00  0.00000000E+00  0.00000000E+00  0.00000000E+00
  0.00000000E+00  0.00000000E+00  0.00000000E+00  0.00000000E+00  0.00000000E+00
  9.00267927E-03  0.00000000E+00  0.00000000E+00  0.00000000E+00  1.59155857E-01
  0.00000000E+00  0.00000000E+00  0.00000000E+00 -3.01534520E-01  0.00000000E+00
  0.00000000E+00  0.00000000E+00  1.14049536E+00  0.00000000E+00  0.00000000E+00
  0.00000000E+00  0.00000000E+00  0.00000000E+00  0.00000000E+00  0.00000000E+00
  0.00000000E+00  9.00267927E-03  0.00000000E+00  0.00000000E+00  0.00000000E+00
  1.59155857E-01  0.00000000E+00  0.00000000E+00  0.00000000E+00 -3.01534520E-01
  0.00000000E+00  0.00000000E+00  0.00000000E+00  1.14049536E+00  0.00000000E+00
  0.00000000E+00  0.00000000E+00  0.00000000E+00  0.00000000E+00  0.00000000E+00
  4.17165103E-02  5.32754578E-02  0.00000000E+00  0.00000000E+00  0.00000000E+00
  1.20933326E-01  0.00000000E+00  0.00000000E+00  0.00000000E+00 -1.51696876E+00
  0.00000000E+00  0.00000000E+00  0.00000000E+00  1.63253254E+00  0.00000000E+00
  0.00000000E+00  0.00000000E+00  8.03413764E-17  0.00000000E+00  0.00000000E+00
  2.02637238E-17  0.00000000E+00  0.00000000E+00  0.00000000E+00  0.00000000E+00
  1.16572930E-01  0.00000000E+00  0.00000000E+00  0.00000000E+00 -2.16568386E-02
  0.00000000E+00  0.00000000E+00  0.00000000E+00  1.29488455E+00  0.00000000E+00
  0.00000000E+00  0.00000000E+00 -7.52508944E-01  0.00000000E+00  0.00000000E+00
  0.00000000E+00  0.00000000E+00  0.00000000E+00  0.00000000E+00  0.00000000E+00
  0.00000000E+00  1.16572930E-01  0.00000000E+00  0.00000000E+00  0.00000000E+00
 -2.16568386E-02  0.00000000E+00  0.00000000E+00  0.00000000E+00  1.29488455E+00
  0.00000000E+00  0.00000000E+00  0.00000000E+00 -7.52508944E-01  0.00000000E+00
  0.00000000E+00  0.00000000E+00  0.00000000E+00  0.00000000E+00  0.00000000E+00
  0.00000000E+00  0.00000000E+00  0.00000000E+00  0.00000000E+00  0.00000000E+00
  1.16572930E-01  0.00000000E+00  0.00000000E+00  0.00000000E+00 -2.16568386E-02
  0.00000000E+00  0.00000000E+00  0.00000000E+00  1.29488455E+00  0.00000000E+00
  0.00000000E+00  0.00000000E+00 -7.52508944E-01  0.00000000E+00  0.00000000E+00
  0.00000000E+00  0.00000000E+00  0.00000000E+00  1.15289505E-01  2.20926568E-01
  0.00000000E+00  0.00000000E+00  0.00000000E+00 -2.35180059E+00  0.00000000E+00
  0.00000000E+00  0.00000000E+00  2.77184511E+00  0.00000000E+00  0.00000000E+00
  0.00000000E+00 -9.11554877E-01  0.00000000E+00  0.00000000E+00  0.00000000E+00
  2.56161503E-16  0.00000000E+00  0.00000000E+00 -3.80817866E-16  0.00000000E+00
  0.00000000E+00  0.00000000E+00  0.00000000E+00  0.00000000E+00 -1.40182898E-01
  0.00000000E+00  0.00000000E+00  0.00000000E+00 -1.53081789E+00  0.00000000E+00
  0.00000000E+00  0.00000000E+00  1.64519047E+00  0.00000000E+00  0.00000000E+00
  0.00000000E+00 -5.19307773E-01  0.00000000E+00  0.00000000E+00  0.00000000E+00
  0.00000000E+00  0.00000000E+00  0.00000000E+00  0.00000000E+00  0.00000000E+00
 -1.40182898E-01  0.00000000E+00  0.00000000E+00  0.00000000E+00 -1.53081789E+00
  0.00000000E+00  0.00000000E+00  0.00000000E+00  1.64519047E+00  0.00000000E+00
  0.00000000E+00  0.00000000E+00 -5.19307773E-01  0.00000000E+00  0.00000000E+00
  0.00000000E+00  0.00000000E+00  0.00000000E+00  0.00000000E+00  0.00000000E+00
  0.00000000E+00 -1.40182898E-01  0.00000000E+00  0.00000000E+00  0.00000000E+00
 -1.53081789E+00  0.00000000E+00  0.00000000E+00  0.00000000E+00  1.64519047E+00
  0.00000000E+00  0.00000000E+00  0.00000000E+00 -5.19307773E-01  0.00000000E+00
  0.00000000E+00  0.00000000E+00  0.00000000E+00  0.00000000E+00  0.00000000E+00
  0.00000000E+00  0.00000000E+00  0.00000000E+00  0.00000000E+00  0.00000000E+00
 -1.28586902E+00  0.00000000E+00  0.00000000E+00  0.00000000E+00  1.45611271E+00
  0.00000000E+00  0.00000000E+00  0.00000000E+00 -9.06539184E-01  0.00000000E+00
  0.00000000E+00  0.00000000E+00  2.53440019E-01  0.00000000E+00  0.00000000E+00
  0.00000000E+00  0.00000000E+00  0.00000000E+00  0.00000000E+00  0.00000000E+00
  0.00000000E+00 -1.28586902E+00  0.00000000E+00  0.00000000E+00  0.00000000E+00
  1.45611271E+00  0.00000000E+00  0.00000000E+00  0.00000000E+00 -9.06539184E-01
  0.00000000E+00  0.00000000E+00  0.00000000E+00  2.53440019E-01  0.00000000E+00
  0.00000000E+00  0.00000000E+00  0.00000000E+00  0.00000000E+00  0.00000000E+00
  0.00000000E+00  0.00000000E+00 -1.28586902E+00  0.00000000E+00  0.00000000E+00
  0.00000000E+00  1.45611271E+00  0.00000000E+00  0.00000000E+00  0.00000000E+00
 -9.06539184E-01  0.00000000E+00  0.00000000E+00  0.00000000E+00  2.53440019E-01
  0.00000000E+00  0.00000000E+00  0.00000000E+00  0.00000000E+00  0.00000000E+00
  0.00000000E+00  0.00000000E+00  0.00000000E+00  0.00000000E+00  0.00000000E+00
  0.00000000E+00  0.00000000E+00  0.00000000E+00  0.00000000E+00  0.00000000E+00
  0.00000000E+00  0.00000000E+00  0.00000000E+00  0.00000000E+00  0.00000000E+00
  0.00000000E+00  0.00000000E+00  0.00000000E+00  0.00000000E+00  0.00000000E+00
  1.00000000E+00  0.00000000E+00  0.00000000E+00  0.00000000E+00  0.00000000E+00
  0.00000000E+00  0.00000000E+00  0.00000000E+00  0.00000000E+00  0.00000000E+00
  0.00000000E+00  0.00000000E+00  0.00000000E+00  0.00000000E+00  0.00000000E+00
  0.00000000E+00  0.00000000E+00  0.00000000E+00  0.00000000E+00  0.00000000E+00
  0.00000000E+00  0.00000000E+00  0.00000000E+00  0.00000000E+00  0.00000000E+00
  1.00000000E+00  0.00000000E+00  0.00000000E+00  0.00000000E+00  0.00000000E+00
  0.00000000E+00  0.00000000E+00  0.00000000E+00  0.00000000E+00  0.00000000E+00
  0.00000000E+00  0.00000000E+00  0.00000000E+00  0.00000000E+00  0.00000000E+00
  0.00000000E+00  0.00000000E+00  0.00000000E+00  0.00000000E+00  0.00000000E+00
  1.00000000E+00  0.00000000E+00  0.00000000E+00  3.16996905E-16  3.15047388E-16
  0.00000000E+00  0.00000000E+00  0.00000000E+00 -1.85021200E-15  0.00000000E+00
  0.00000000E+00  0.00000000E+00  1.69024705E-15  0.00000000E+00  0.00000000E+00
  0.00000000E+00 -1.03774462E-15  0.00000000E+00  0.00000000E+00  0.00000000E+00
 -4.89663264E-01  0.00000000E+00  0.00000000E+00  8.71911629E-01  0.00000000E+00
 -6.03440996E-17 -3.99270085E-17  0.00000000E+00  0.00000000E+00  0.00000000E+00
  1.23293197E-15  0.00000000E+00  0.00000000E+00  0.00000000E+00 -1.31642740E-15
  0.00000000E+00  0.00000000E+00  0.00000000E+00  7.19978058E-16  0.00000000E+00
  0.00000000E+00  0.00000000E+00  8.71911629E-01  0.00000000E+00  0.00000000E+00
  4.89663264E-01  0.00000000E+00 -1.65288586E+00  1.82074144E+00  0.00000000E+00
  0.00000000E+00  0.00000000E+00 -5.71430351E-01  0.00000000E+00  0.00000000E+00
  0.00000000E+00  4.69727082E-01  0.00000000E+00  0.00000000E+00  0.00000000E+00
 -1.44307414E-01  0.00000000E+00  0.00000000E+00  0.00000000E+00 -1.30412110E-16
  0.00000000E+00  0.00000000E+00  1.93386875E-18  0.00000000E+00
Orthonormal basis                          R   N=         484
  1.84076548E-01  2.14623396E-01  0.00000000E+00  0.00000000E+00  0.00000000E+00
  3.29791692E-01  0.00000000E+00  0.00000000E+00  0.00000000E+00  3.41076958E-01
  0.00000000E+00  0.00000000E+00  0.00000000E+00  2.76009801E-01  0.00000000E+00
  0.00000000E+00  0.00000000E+00  7.34018349E-18  0.00000000E+00  0.00000000E+00
  0.00000000E+00  0.00000000E+00  4.93533804E-01  4.68045001E-01  0.00000000E+00
  0.00000000E+00  0.00000000E+00 -1.01645313E-01  0.00000000E+00  0.00000000E+00
  0.00000000E+00 -2.42001301E-01  0.00000000E+00  0.00000000E+00  0.00000000E+00
 -2.72593794E-01  0.00000000E+00  0.00000000E+00  0.00000000E+00  3.98856870E-17
  0.00000000E+00  0.00000000E+00  0.00000000E+00  0.00000000E+00 -6.80864130E-17
 -1.01262339E-18  0.00000000E+00  0.00000000E+00  0.00000000E+00 -4.27154151E-18
  0.00000000E+00  0.00000000E+00  0.00000000E+00  5.66373593E-18  0.00000000E+00
  0.00000000E+00  0.00000000E+00  1.78360335E-17  0.00000000E+00  0.00000000E+00
  0.00000000E+00  1.00000000E+00  0.00000000E+00  0.00000000E+00  0.00000000E+00
  0.00000000E+00  0.00000000E+00  0.00000000E+00  0.00000000E+00  0.00000000E+00
  0.00000000E+00  0.00000000E+00  0.00000000E+00  0.00000000E+00  0.00000000E+00
  0.00000000E+00  0.00000000E+00  0.00000000E+00  0.00000000E+00  0.00000000E+00
  0.00000000E+00  0.00000000E+00  0.00000000E+00  0.00000000E+00  0.00000000E+00
  0.00000000E+00  1.00000000E+00  0.00000000E+00  3.18966190E-01  1.12146740E-03
  0.00000000E+00  0.00000000E+00  0.00000000E+00 -9.13955465E-01  0.00000000E+00
  0.00000000E+00  0.00000000E+00 -1.20031764E-01  0.00000000E+00  0.00000000E+00
  0.00000000E+00  1.02677549E+00  0.00000000E+00  0.00000000E+00  0.00000000E+00
 -1.49185685E-18  0.00000000E+00  0.00000000E+00  0.00000000E+00  0.00000000E+00
 -1.62002795E+00  1.69495660E+00  0.00000000E+00  0.00000000E+00  0.00000000E+00
 -8.62373782E-02  0.00000000E+00  0.00000000E+00  0.00000000E+00 -4.13384779E-01
  0.00000000E+00  0.00000000E+00  0.00000000E+00  3.76320704E-01  0.00000000E+00
  0.00000000E+00  0.00000000E+00 -1.13697472E-16  0.00000000E+00  0.00000000E+00
  0.00000000E+00  0.00000000E+00 -3.59123377E-01  6.52055367E-01  0.00000000E+00
  0.00000000E+00  0.00000000E+00 -2.23933428E+00  0.00000000E+00  0.00000000E+00
  0.00000000E+00  3.17199852E+00  0.00000000E+00  0.00000000E+00  0.00000000E+00
 -1.51161991E+00  0.00000000E+00  0.00000000E+00  0.00000000E+00 -2.42240217E-17
  0.00000000E+00  0.00000000E+00  0.00000000E+00  0.00000000E+00  0.00000000E+00
  0.00000000E+00  0.00000000E+00  0.00000000E+00  0.00000000E+00  0.00000000E+00
  0.00000000E+00  0.00000000E+00  0.00000000E+00  0.00000000E+00  0.00000000E+00
  0.00000000E+00  0.00000000E+00  0.00000000E+00  0.00000000E+00  0.00000000E+00
  0.00000000E+00  0.00000000E+00  0.00000000E+00  0.00000000E+00  0.00000000E+00
  1.00000000E+00  0.00000000E+00  0.00000000E+00  0.00000000E+00  0.00000000E+00
  0.00000000E+00  0.00000000E+00  0.00000000E+00  0.00000000E+00  0.00000000E+00
  0.00000000E+00  0.00000000E+00  0.00000000E+00  0.00000000E+00  0.00000000E+00
  0.00000000E+00  0.00000000E+00  0.00000000E+00  0.00000000E+00  1.00000000E+00
  0.00000000E+00  0.00000000E+00  0.00000000E+00  0.00000000E+00  0.00000000E+00
  0.00000000E+00  0.00000000E+00  0.00000000E+00  0.00000000E+00  0.00000000E+00
  0.00000000E+00  0.00000000E+00  0.00000000E+00  0.00000000E+00  0.00000000E+00
  0.00000000E+00  0.00000000E+00  0.00000000E+00  0.00000000E+00  0.00000000E+00
  0.00000000E+00  0.00000000E+00  1.00000000E+00  0.00000000E+00  0.00000000E+00
  0.00000000E+00  0.00000000E+00  0.00000000E+00  0.00000000E+00  2.33885646E-01
  0.00000000E+00  0.00000000E+00  0.00000000E+00  3.75450243E-01  0.00000000E+00
  0.00000000E+00  0.00000000E+00  3.88510353E-01  0.00000000E+00  0.00000000E+00
  0.00000000E+00  2.81315845E-01  0.00000000E+00  0.00000000E+00  0.00000000E+00
  0.00000000E+00  0.00000000E+00  0.00000000E+00  0.00000000E+00  0.00000000E+00
  0.00000000E+00  6.82102789E-01  0.00000000E+00  0.00000000E+00  0.00000000E+00
  2.63967830E-01  0.00000000E+00  0.00000000E+00  0.00000000E+00 -2.49077896E-01
  0.00000000E+00  0.00000000E+00  0.00000000E+00 -5.75408385E-01  0.00000000E+00
  0.00000000E+00  0.00000000E+00  0.00000000E+00  0.00000000E+00  0.00000000E+00
  0.00000000E+00  0.00000000E+00  0.00000000E+00  8.23015172E-01  0.00000000E+00
  0.00000000E+00  0.00000000E+00 -6.80585829E-01  0.00000000E+00  0.00000000E+00
  0.00000000E+00 -4.63345829E-01  0.00000000E+00  0.00000000E+00  0.00000000E+00
  8.63973130E-01  0.00000000E+00  0.00000000E+00  0.00000000E+00  0.00000000E+00
  0.00000000E+00  0.00000000E+00  0.00000000E+00  0.00000000E+00  0.00000000E+00
  6.99614171E-01  0.00000000E+00  0.00000000E+00  0.00000000E+00 -1.95336332E+00
  0.00000000E+00  0.00000000E+00  0.00000000E+00  2.20645520E+00  0.00000000E+00
  0.00000000E+00  0.00000000E+00 -1.02187514E+00  0.00000000E+00  0.00000000E+00
  0.00000000E+00  0.00000000E+00  0.00000000E+00  0.00000000E+00  0.00000000E+00
  0.00000000E+00  2.33885646E-01  0.00000000E+00  0.00000000E+00  0.00000000E+00
  3.75450243E-01  0.00000000E+00  0.00000000E+00  0.00000000E+00  3.88510353E-01
  0.00000000E+00  0.00000000E+00  0.00000000E+00  2.81315845E-01  0.00000000E+00
  0.00000000E+00  0.00000000E+00  0.00000000E+00  0.00000000E+00  0.00000000E+00
  0.00000000E+00  0.00000000E+00  0.00000000E+00  6.82102789E-01  0.00000000E+00
  0.00000000E+00  0.00000000E+00  2.63967830E-01  0.00000000E+00  0.00000000E+00
  0.00000000E+00 -2.49077896E-01  0.00000000E+00  0.00000000E+00  0.00000000E+00
 -5.75408385E-01  0.00000000E+00  0.00000000E+00  0.00000000E+00  0.00000000E+00
  0.00000000E+00  0.00000000E+00  0.00000000E+00  0.00000000E+00  0.00000000E+00
  8.23015172E-01  0.00000000E+00  0.00000000E+00  0.00000000E+00 -6.80585829E-01
  0.00000000E+00  0.00000000E+00  0.00000000E+00 -4.63345829E-01  0.00000000E+00
  0.00000000E+00  0.00000000E+00  8.63973130E-01  0.00000000E+00  0.00000000E+00
  0.00000000E+00  0.00000000E+00  0.00000000E+00  0.00000000E+00  0.00000000E+00
  0.00000000E+00  0.00000000E+00  6.99614171E-01  0.00000000E+00  0.00000000E+00
  0.00000000E+00 -1.95336332E+00  0.00000000E+00  0.00000000E+00  0.00000000E+00
  2.20645520E+00  0.00000000E+00  0.00000000E+00  0.00000000E+00 -1.02187514E+00
  0.00000000E+00  0.00000000E+00  0.00000000E+00  0.00000000E+00  0.00000000E+00
  0.00000000E+00  0.00000000E+00  0.00000000E+00  2.33885646E-01  0.00000000E+00
  0.00000000E+00  0.00000000E+00  3.75450243E-01  0.00000000E+00  0.00000000E+00
  0.00000000E+00  3.88510353E-01  0.00000000E+00  0.00000000E+00  0.00000000E+00
  2.81315845E-01  0.00000000E+00  0.00000000E+00  0.00000000E+00  0.00000000E+00
  0.00000000E+00  0.00000000E+00  0.00000000E+00  0.00000000E+00  0.00000000E+00
  6.82102789E-01  0.00000000E+00  0.00000000E+00  0.00000000E+00  2.63967830E-01
  0.00000000E+00  0.00000000E+00  0.00000000E+00 -2.49077896E-01  0.00000000E+00
  0.00000000E+00  0.00000000E+00 -5.75408385E-01  0.00000000E+00  0.00000000E+00
  0.00000000E+00  0.00000000E+00  0.00000000E+00  0.00000000E+00  0.00000000E+00
  0.00000000E+00  0.00000000E+00  8.23015172E-01  0.00000000E+00  0.00000000E+00
  0.00000000E+00 -6.80585829E-01  0.00000000E+00  0.00000000E+00  0.00000000E+00
 -4.63345829E-01  0.00000000E+00  0.00000000E+00  0.00000000E+00  8.63973130E-01
  0.00000000E+00  0.00000000E+00  0.00000000E+00  0.00000000E+00  0.00000000E+00
  0.00000000E+00  0.00000000E+00  0.00000000E+00  0.00000000E+00  6.99614171E-01
  0.00000000E+00  0.00000000E+00  0.00000000E+00 -1.95336332E+00  0.00000000E+00
  0.00000000E+00  0.00000000E+00  2.20645520E+00  0.00000000E+00  0.00000000E+00
  0.00000000E+00 -1.02187514E+00  0.00000000E+00  0.00000000E+00  0.00000000E+00
  0.00000000E+00  0.00000000E+00  0.00000000E+00  0.00000000E+00
Total SCF Density                          R   N=         253
  7.71191559E-01  5.45200562E-01  3.92876885E-01  0.00000000E+00  0.00000000E+00
  0.00000000E+00  0.00000000E+00  0.00000000E+00  0.00000000E+00  0.00000000E+00
  0.00000000E+00  0.00000000E+00  0.00000000E+00  0.00000000E+00  0.00000000E+00
 -3.09825181E-02 -6.11954266E-02  0.00000000E+00  0.00000000E+00  0.00000000E+00
  2.08680650E-01  0.00000000E+00  0.00000000E+00  0.00000000E+00  0.00000000E+00
  0.00000000E+00  0.00000000E+00  0.00000000E+00  0.00000000E+00  0.00000000E+00
  0.00000000E+00  0.00000000E+00  0.00000000E+00  0.00000000E+00  0.00000000E+00
  0.00000000E+00  0.00000000E+00  0.00000000E+00  0.00000000E+00  0.00000000E+00
  0.00000000E+00  0.00000000E+00  0.00000000E+00  0.00000000E+00  0.00000000E+00
 -8.85166167E-02 -1.18716412E-01  0.00000000E+00  0.00000000E+00  0.00000000E+00
  2.99931717E-01  0.00000000E+00  0.00000000E+00  0.00000000E+00  4.33608576E-01
  0.00000000E+00  0.00000000E+00  0.00000000E+00  0.00000000E+00  0.00000000E+00
  0.00000000E+00  0.00000000E+00  0.00000000E+00  0.00000000E+00  0.00000000E+00
  0.00000000E+00  0.00000000E+00  0.00000000E+00  0.00000000E+00  0.00000000E+00
  0.00000000E+00  0.00000000E+00  0.00000000E+00  0.00000000E+00  0.00000000E+00
  0.00000000E+00  0.00000000E+00  0.00000000E+00  0.00000000E+00  0.00000000E+00
  0.00000000E+00  0.00000000E+00  0.00000000E+00  0.00000000E+00  0.00000000E+00
  0.00000000E+00  0.00000000E+00  0.00000000E+00  0.00000000E+00  0.00000000E+00
  0.00000000E+00 -4.90944021E-02 -7.56997121E-02  0.00000000E+00  0.00000000E+00
  0.00000000E+00  2.18382800E-01  0.00000000E+00  0.00000000E+00  0.00000000E+00
  3.14832974E-01  0.00000000E+00  0.00000000E+00  0.00000000E+00  2.28898592E-01
  0.00000000E+00  0.00000000E+00  0.00000000E+00  0.00000000E+00  0.00000000E+00
  0.00000000E+00  0.00000000E+00  0.00000000E+00  0.00000000E+00  0.00000000E+00
  0.00000000E+00  0.00000000E+00  0.00000000E+00  0.00000000E+00  0.00000000E+00
  0.00000000E+00  0.00000000E+00  0.00000000E+00  0.00000000E+00  0.00000000E+00
  0.00000000E+00  0.00000000E+00  0.00000000E+00  0.00000000E+00  0.00000000E+00
  0.00000000E+00  0.00000000E+00  0.00000000E+00  0.00000000E+00  0.00000000E+00
  0.00000000E+00  0.00000000E+00  0.00000000E+00  0.00000000E+00  0.00000000E+00
  0.00000000E+00  0.00000000E+00  0.00000000E+00  0.00000000E+00  0.00000000E+00
  0.00000000E+00  0.00000000E+00  0.00000000E+00  0.00000000E+00  0.00000000E+00
  0.00000000E+00  0.00000000E+00  0.00000000E+00  7.01894469E-33 -5.82058828E-32
  0.00000000E+00  0.00000000E+00  0.00000000E+00  1.26683392E-32  0.00000000E+00
  0.00000000E+00  0.00000000E+00 -4.58799311E-32  0.00000000E+00  0.00000000E+00
  0.00000000E+00  2.53366784E-32  0.00000000E+00  0.00000000E+00  0.00000000E+00
  1.20704898E-30 -7.69427148E-33 -5.39980304E-33  0.00000000E+00  0.00000000E+00
  0.00000000E+00  9.93740609E-35  0.00000000E+00  0.00000000E+00  0.00000000E+00
  5.83470222E-34  0.00000000E+00  0.00000000E+00  0.00000000E+00  2.71004230E-34
  0.00000000E+00  0.00000000E+00  0.00000000E+00  1.67160032E-47  7.86944929E-62
  2.29366695E-33  8.62893447E-34  0.00000000E+00  0.00000000E+00  0.00000000E+00
  3.91293583E-33  0.00000000E+00  0.00000000E+00  0.00000000E+00  5.45902703E-33
  0.00000000E+00  0.00000000E+00  0.00000000E+00  4.03234366E-33  0.00000000E+00
  0.00000000E+00  0.00000000E+00 -1.95430111E-47 -1.58202233E-63  7.17806020E-62
 -3.05411802E-32 -1.54188482E-32  0.00000000E+00  0.00000000E+00  0.00000000E+00
  6.52335887E-33  0.00000000E+00  0.00000000E+00  0.00000000E+00  2.01631092E-32
  0.00000000E+00  0.00000000E+00  0.00000000E+00  1.18606525E-32  0.00000000E+00
  0.00000000E+00  0.00000000E+00  0.00000000E+00 -8.65593079E-48 -1.12072470E-47
  1.20704898E-30 -2.84026924E-32 -1.94191171E-32  0.00000000E+00  0.00000000E+00
  0.00000000E+00 -2.34546461E-33  0.00000000E+00  0.00000000E+00  0.00000000E+00
 -1.72138417E-33  0.00000000E+00  0.00000000E+00  0.00000000E+00 -1.82925241E-33
  0.00000000E+00  0.00000000E+00  0.00000000E+00 -5.11781085E-48  1.05596930E-63
 -1.55702334E-64  1.01056065E-46  7.21965907E-62
Mulliken Charges                           R   N=           1
 -1.00000000E+00
ONIOM Charges                              I   N=          16
          -1           0           0           0           0           0
           0           0           0           0           0           0
           0           0           0           0
ONIOM Multiplicities                       I   N=          16
           1           0           0           0           0           0
           0           0           0           0           0           0
           0           0           0           0