fubar                                                                   
SP        RPBE1PBE                                                    6-311+G(d,p)        
Number of atoms                            I                1
Info1-9                                    I   N=           9
          11          10           0           0           0         110
           1          18       -1302
Full Title                                 C   N=           1
fubar       
Route                                      C   N=           3
#PBE1PBE/6-311+G(d,p) scf=tight     
Charge                                     I                3
Multiplicity                               I                1
Number of electrons                        I                4
Number of alpha electrons                  I                2
Number of beta electrons                   I                2
Number of basis functions                  I               22
Number of independent functions            I               22
Number of point charges in /Mol/           I                0
Number of translation vectors              I                0
Atomic numbers                             I   N=           1
           7
Nuclear charges                            R   N=           1
  7.00000000E+00
Current cartesian coordinates              R   N=           3
  0.00000000E+00  0.00000000E+00  0.00000000E+00
Number of symbols in /Mol/                 I                0
Int Atom Types                             I   N=           1
           0
Force Field                                I                0
Atom Types                                 C   N=           1
            
MM charges                                 R   N=           1
  0.00000000E+00
Integer atomic weights                     I   N=           1
          14
Real atomic weights                        R   N=           1
  1.40030740E+01
Atom fragment info                         I   N=           1
           0
Atom residue num                           I   N=           1
           0
Nuclear spins                              I   N=           1
           2
Nuclear ZEff                               R   N=           1
 -4.55000000E+00
Nuclear ZNuc                               R   N=           1
  7.00000000E+00
Nuclear QMom                               R   N=           1
  2.04400000E+00
Nuclear GFac                               R   N=           1
  4.03761000E-01
MicOpt                                     I   N=           1
          -1
Number of residues                         I                0
Number of secondary structures             I                0
SymInf integers                            I   N=          26
           1           8           1           1           1           1
          -1          -1          -1           1          -1          -1
          -1           1          -1          -1          -1          -1
           1           1           1          -1           1           1
           1          -1
RotTr to input orientation                 R   N=          12
  0.00000000E+00  0.00000000E+00 -1.00000000E+00  0.00000000E+00  1.00000000E+00
  0.00000000E+00  1.00000000E+00  0.00000000E+00  0.00000000E+00  0.00000000E+00
  0.00000000E+00  0.00000000E+00
Number of contracted shells                I                6
Number of primitive shells                 I               13
Pure/Cartesian d shells                    I                0
Pure/Cartesian f shells                    I                0
Highest angular momentum                   I                2
Largest degree of contraction              I                6
Shell types                                I   N=           6
           0          -1          -1          -1          -1          -2
Number of primitives per shell             I   N=           6
           6           3           1           1           1           1
Shell to atom map                          I   N=           6
           1           1           1           1           1           1
Primitive exponents                        R   N=          13
  6.29348000E+03  9.49044000E+02  2.18776000E+02  6.36916000E+01  1.88282000E+01
  2.72023000E+00  3.06331000E+01  7.02614000E+00  2.11205000E+00  6.84009000E-01
  2.00878000E-01  6.39000000E-02  9.13000000E-01
Contraction coefficients                   R   N=          13
  1.96978815E-03  1.49612859E-02  7.35005308E-02  2.48936766E-01  6.02459433E-01
  2.56201759E-01  1.11906080E-01  9.21666655E-01 -2.56919183E-03  1.00000000E+00
  1.00000000E+00  1.00000000E+00  1.00000000E+00
P(S=P) Contraction coefficients            R   N=          13
  0.00000000E+00  0.00000000E+00  0.00000000E+00  0.00000000E+00  0.00000000E+00
  0.00000000E+00  3.83119186E-02  2.37403116E-01  8.17592398E-01  1.00000000E+00
  1.00000000E+00  1.00000000E+00  0.00000000E+00
Coordinates of each shell                  R   N=          18
  0.00000000E+00  0.00000000E+00  0.00000000E+00  0.00000000E+00  0.00000000E+00
  0.00000000E+00  0.00000000E+00  0.00000000E+00  0.00000000E+00  0.00000000E+00
  0.00000000E+00  0.00000000E+00  0.00000000E+00  0.00000000E+00  0.00000000E+00
  0.00000000E+00  0.00000000E+00  0.00000000E+00
Num ILSW                                   I              100
ILSW                                       I   N=         100
           0           0           0           0           2           0
           0           0           0           0        1009          -1
           5           0           0           0           0           0
           0           0           0           0           0           0
           1           0           0           0           0           0
           0           0      100000           0          -1           0
           0           0           0           0           0           0
           0           0           0           1           0           0
           0 -2000000000           1           0           0           0
           0           0           4          52           0           0
           0           0          13           0           0           0
           0           0           0           1           0           1
           0           0           0           0           0           0
           0           0           0           0           0           0
           0           0           0           0           0           0
           0           0           0           0           0           0
           0           0           0           0
Num RLSW                                   I               52
RLSW                                       R   N=          52
  7.50000000E-01  7.50000000E-01  1.00000000E+00  1.00000000E+00  2.50000000E-01
  0.00000000E+00  0.00000000E+00  1.00000000E+00  0.00000000E+00  0.00000000E+00
  0.00000000E+00  0.00000000E+00  1.00000000E+00  0.00000000E+00  0.00000000E+00
  0.00000000E+00  0.00000000E+00  1.00000000E+00  0.00000000E+00  0.00000000E+00
  0.00000000E+00  0.00000000E+00  1.00000000E+00  0.00000000E+00  0.00000000E+00
  0.00000000E+00  0.00000000E+00  1.00000000E+00  0.00000000E+00  0.00000000E+00
  0.00000000E+00  0.00000000E+00  1.00000000E+00  0.00000000E+00  0.00000000E+00
  0.00000000E+00  0.00000000E+00  0.00000000E+00  1.00000000E+00  1.00000000E+00
  0.00000000E+00  1.00000000E+00  0.00000000E+00  0.00000000E+00  0.00000000E+00
  0.00000000E+00  0.00000000E+00  0.00000000E+00  0.00000000E+00  0.00000000E+00
  0.00000000E+00  0.00000000E+00
MxBond                                     I                1
NBond                                      I   N=           1
           0
IBond                                      I   N=           1
           0
RBond                                      R   N=           1
  0.00000000E+00
Virial Ratio                               R      2.004226707898652E+00
SCF Energy                                 R     -5.113567626627605E+01
Total Energy                               R     -5.113567626627605E+01
RMS Density                                R      3.362431774145284E-09
Job Status                                 I                1
Nuclear derivative order                   I                0
External E-field                           R   N=          35
  0.00000000E+00  0.00000000E+00  0.00000000E+00  0.00000000E+00  0.00000000E+00
  0.00000000E+00  0.00000000E+00  0.00000000E+00  0.00000000E+00  0.00000000E+00
  0.00000000E+00  0.00000000E+00  0.00000000E+00  0.00000000E+00  0.00000000E+00
  0.00000000E+00  0.00000000E+00  0.00000000E+00  0.00000000E+00  0.00000000E+00
  0.00000000E+00  0.00000000E+00  0.00000000E+00  0.00000000E+00  0.00000000E+00
  0.00000000E+00  0.00000000E+00  0.00000000E+00  0.00000000E+00  0.00000000E+00
  0.00000000E+00  0.00000000E+00  0.00000000E+00  0.00000000E+00  0.00000000E+00
IOpCl                                      I                0
IROHF                                      I                0
Alpha Orbital Energies                     R   N=          22
 -1.69699414E+01 -2.57924469E+00 -2.00977689E+00 -2.00977689E+00 -2.00977689E+00
 -7.95731513E-01 -6.91177991E-01 -6.91177991E-01 -6.91177991E-01 -2.89913605E-01
 -2.89913605E-01 -2.89913605E-01 -2.56859292E-01  2.03066826E-01  2.03066826E-01
  2.03066826E-01  2.03066826E-01  2.03066826E-01  1.87634330E+00  1.87634330E+00
  1.87634330E+00  3.27739433E+01
Alpha MO coefficients                      R   N=         484
  5.59040402E-01  4.67031060E-01  0.00000000E+00  0.00000000E+00  0.00000000E+00
  5.34804964E-03  0.00000000E+00  0.00000000E+00  0.00000000E+00 -2.38355307E-03
  0.00000000E+00  0.00000000E+00  0.00000000E+00  8.24897047E-04  0.00000000E+00
  0.00000000E+00  0.00000000E+00  4.83068353E-16  0.00000000E+00  0.00000000E+00
  9.35693041E-17  0.00000000E+00 -1.55939129E-01 -2.49507805E-01  0.00000000E+00
  0.00000000E+00  0.00000000E+00  9.31307916E-01  0.00000000E+00  0.00000000E+00
  0.00000000E+00  1.91948020E-01  0.00000000E+00  0.00000000E+00  0.00000000E+00
 -1.66159019E-02  0.00000000E+00  0.00000000E+00  0.00000000E+00 -1.60001002E-17
  0.00000000E+00  0.00000000E+00 -4.62191880E-16  0.00000000E+00  0.00000000E+00
  0.00000000E+00  0.00000000E+00  0.00000000E+00  4.45380005E-01  0.00000000E+00
  0.00000000E+00  0.00000000E+00  5.88028296E-01  0.00000000E+00  0.00000000E+00
  0.00000000E+00  1.28718151E-01  0.00000000E+00  0.00000000E+00  0.00000000E+00
 -1.39013593E-02  0.00000000E+00  0.00000000E+00  0.00000000E+00  0.00000000E+00
  0.00000000E+00  0.00000000E+00  0.00000000E+00  0.00000000E+00  4.45380005E-01
  0.00000000E+00  0.00000000E+00  0.00000000E+00  5.88028296E-01  0.00000000E+00
  0.00000000E+00  0.00000000E+00  1.28718151E-01  0.00000000E+00  0.00000000E+00
  0.00000000E+00 -1.39013593E-02  0.00000000E+00  0.00000000E+00  0.00000000E+00
  0.00000000E+00  0.00000000E+00  0.00000000E+00  0.00000000E+00  0.00000000E+00
  4.45380005E-01  0.00000000E+00  0.00000000E+00  0.00000000E+00  5.88028296E-01
  0.00000000E+00  0.00000000E+00  0.00000000E+00  1.28718151E-01  0.00000000E+00
  0.00000000E+00  0.00000000E+00 -1.39013593E-02  0.00000000E+00  0.00000000E+00
  0.00000000E+00  0.00000000E+00  0.00000000E+00  0.00000000E+00  0.00000000E+00
 -7.14157825E-02 -1.28239523E-01  0.00000000E+00  0.00000000E+00  0.00000000E+00
  8.83263278E-01  0.00000000E+00  0.00000000E+00  0.00000000E+00 -4.97518253E-01
  0.00000000E+00  0.00000000E+00  0.00000000E+00 -8.04246776E-01  0.00000000E+00
  0.00000000E+00  0.00000000E+00 -2.20978382E-16  0.00000000E+00  0.00000000E+00
  5.84224935E-17  0.00000000E+00  0.00000000E+00  0.00000000E+00 -2.40544885E-01
  0.00000000E+00  0.00000000E+00  0.00000000E+00 -3.48867077E-01  0.00000000E+00
  0.00000000E+00  0.00000000E+00  7.02963175E-01  0.00000000E+00  0.00000000E+00
  0.00000000E+00  4.87120470E-01  0.00000000E+00  0.00000000E+00  0.00000000E+00
  0.00000000E+00  0.00000000E+00  0.00000000E+00  0.00000000E+00  0.00000000E+00
  0.00000000E+00  0.00000000E+00  0.00000000E+00 -2.40544885E-01  0.00000000E+00
  0.00000000E+00  0.00000000E+00 -3.48867077E-01  0.00000000E+00  0.00000000E+00
  0.00000000E+00  7.02963175E-01  0.00000000E+00  0.00000000E+00  0.00000000E+00
  4.87120470E-01  0.00000000E+00  0.00000000E+00  0.00000000E+00  0.00000000E+00
  0.00000000E+00  0.00000000E+00  0.00000000E+00  0.00000000E+00 -2.40544885E-01
  0.00000000E+00  0.00000000E+00  0.00000000E+00 -3.48867077E-01  0.00000000E+00
  0.00000000E+00  0.00000000E+00  7.02963175E-01  0.00000000E+00  0.00000000E+00
  0.00000000E+00  4.87120470E-01  0.00000000E+00  0.00000000E+00  0.00000000E+00
  0.00000000E+00  0.00000000E+00  0.00000000E+00  0.00000000E+00  0.00000000E+00
  0.00000000E+00  0.00000000E+00 -2.27789268E-01  0.00000000E+00  0.00000000E+00
  0.00000000E+00 -3.86883909E-01  0.00000000E+00  0.00000000E+00  0.00000000E+00
  1.47433907E+00  0.00000000E+00  0.00000000E+00  0.00000000E+00 -1.33202816E+00
  0.00000000E+00  0.00000000E+00  0.00000000E+00  0.00000000E+00  0.00000000E+00
  0.00000000E+00  0.00000000E+00  0.00000000E+00 -2.27789268E-01  0.00000000E+00
  0.00000000E+00  0.00000000E+00 -3.86883909E-01  0.00000000E+00  0.00000000E+00
  0.00000000E+00  1.47433907E+00  0.00000000E+00  0.00000000E+00  0.00000000E+00
 -1.33202816E+00  0.00000000E+00  0.00000000E+00  0.00000000E+00  0.00000000E+00
  0.00000000E+00  0.00000000E+00  0.00000000E+00  0.00000000E+00 -2.27789268E-01
  0.00000000E+00  0.00000000E+00  0.00000000E+00 -3.86883909E-01  0.00000000E+00
  0.00000000E+00  0.00000000E+00  1.47433907E+00  0.00000000E+00  0.00000000E+00
  0.00000000E+00 -1.33202816E+00  0.00000000E+00  0.00000000E+00  0.00000000E+00
  0.00000000E+00  0.00000000E+00  0.00000000E+00  0.00000000E+00  8.42068648E-02
  1.61949302E-01  0.00000000E+00  0.00000000E+00  0.00000000E+00 -1.47710984E+00
  0.00000000E+00  0.00000000E+00  0.00000000E+00  2.66089920E+00  0.00000000E+00
  0.00000000E+00  0.00000000E+00 -1.70158909E+00  0.00000000E+00  0.00000000E+00
  0.00000000E+00  4.32543895E-16  0.00000000E+00  0.00000000E+00 -1.13176480E-15
  0.00000000E+00  0.00000000E+00  0.00000000E+00  0.00000000E+00  0.00000000E+00
  0.00000000E+00  0.00000000E+00  0.00000000E+00  0.00000000E+00  0.00000000E+00
  0.00000000E+00  0.00000000E+00  0.00000000E+00  0.00000000E+00  0.00000000E+00
  0.00000000E+00  0.00000000E+00  0.00000000E+00  0.00000000E+00  0.00000000E+00
  0.00000000E+00  0.00000000E+00  1.00000000E+00  0.00000000E+00  0.00000000E+00
  0.00000000E+00  0.00000000E+00  0.00000000E+00  0.00000000E+00  0.00000000E+00
  0.00000000E+00  0.00000000E+00  0.00000000E+00  0.00000000E+00  0.00000000E+00
  0.00000000E+00  0.00000000E+00  0.00000000E+00  0.00000000E+00  0.00000000E+00
  0.00000000E+00  1.00000000E+00  0.00000000E+00  0.00000000E+00  0.00000000E+00
  0.00000000E+00  0.00000000E+00  0.00000000E+00  0.00000000E+00  0.00000000E+00
  0.00000000E+00  0.00000000E+00  0.00000000E+00  0.00000000E+00  0.00000000E+00
  0.00000000E+00  0.00000000E+00  0.00000000E+00  0.00000000E+00  0.00000000E+00
  0.00000000E+00  0.00000000E+00  0.00000000E+00  0.00000000E+00  1.00000000E+00
  0.00000000E+00  0.00000000E+00  6.50582858E-18  1.27301983E-17  0.00000000E+00
  0.00000000E+00  0.00000000E+00 -2.70596438E-16  0.00000000E+00  0.00000000E+00
  0.00000000E+00  6.14394911E-16  0.00000000E+00  0.00000000E+00  0.00000000E+00
 -3.54377978E-16  0.00000000E+00  0.00000000E+00  0.00000000E+00  7.78298665E-01
  0.00000000E+00  0.00000000E+00  6.27894249E-01  0.00000000E+00  1.41149057E-16
  3.35010196E-16  0.00000000E+00  0.00000000E+00  0.00000000E+00 -3.36700951E-15
  0.00000000E+00  0.00000000E+00  0.00000000E+00  5.49899544E-15  0.00000000E+00
  0.00000000E+00  0.00000000E+00 -2.94869881E-15  0.00000000E+00  0.00000000E+00
  0.00000000E+00 -6.27894249E-01  0.00000000E+00  0.00000000E+00  7.78298665E-01
  0.00000000E+00  0.00000000E+00  0.00000000E+00  0.00000000E+00 -1.24157705E+00
  0.00000000E+00  0.00000000E+00  0.00000000E+00  1.66980180E+00  0.00000000E+00
  0.00000000E+00  0.00000000E+00 -1.07253756E+00  0.00000000E+00  0.00000000E+00
  0.00000000E+00  4.05203907E-01  0.00000000E+00  0.00000000E+00  0.00000000E+00
  0.00000000E+00  0.00000000E+00  0.00000000E+00  0.00000000E+00  0.00000000E+00
  0.00000000E+00  0.00000000E+00 -1.24157705E+00  0.00000000E+00  0.00000000E+00
  0.00000000E+00  1.66980180E+00  0.00000000E+00  0.00000000E+00  0.00000000E+00
 -1.07253756E+00  0.00000000E+00  0.00000000E+00  0.00000000E+00  4.05203907E-01
  0.00000000E+00  0.00000000E+00  0.00000000E+00  0.00000000E+00  0.00000000E+00
  0.00000000E+00  0.00000000E+00 -1.24157705E+00  0.00000000E+00  0.00000000E+00
  0.00000000E+00  1.66980180E+00  0.00000000E+00  0.00000000E+00  0.00000000E+00
 -1.07253756E+00  0.00000000E+00  0.00000000E+00  0.00000000E+00  4.05203907E-01
  0.00000000E+00  0.00000000E+00  0.00000000E+00  0.00000000E+00  0.00000000E+00
  0.00000000E+00  0.00000000E+00 -2.14349719E+00  2.25535428E+00  0.00000000E+00
  0.00000000E+00  0.00000000E+00 -3.33327583E-01  0.00000000E+00  0.00000000E+00
  0.00000000E+00  2.86456308E-01  0.00000000E+00  0.00000000E+00  0.00000000E+00
 -1.08751019E-01  0.00000000E+00  0.00000000E+00  0.00000000E+00 -3.56807779E-17
  0.00000000E+00  0.00000000E+00  2.86624095E-19  0.00000000E+00
Orthonormal basis                          R   N=         484
  2.37258796E-01  2.48792276E-01  0.00000000E+00  0.00000000E+00  0.00000000E+00
  3.14136421E-01  0.00000000E+00  0.00000000E+00  0.00000000E+00  3.10357360E-01
  0.00000000E+00  0.00000000E+00  0.00000000E+00  2.47131997E-01  0.00000000E+00
  0.00000000E+00  0.00000000E+00 -2.08603220E-17  0.00000000E+00  0.00000000E+00
  0.00000000E+00  0.00000000E+00  4.42543018E-01  4.32319358E-01  0.00000000E+00
  0.00000000E+00  0.00000000E+00 -9.06604449E-02  0.00000000E+00  0.00000000E+00
  0.00000000E+00 -3.14228116E-01  0.00000000E+00  0.00000000E+00  0.00000000E+00
 -3.50226540E-01  0.00000000E+00  0.00000000E+00  0.00000000E+00  1.59340170E-17
  0.00000000E+00  0.00000000E+00  0.00000000E+00  0.00000000E+00  0.00000000E+00
  0.00000000E+00  0.00000000E+00  0.00000000E+00  0.00000000E+00  0.00000000E+00
  0.00000000E+00  0.00000000E+00  0.00000000E+00  0.00000000E+00  0.00000000E+00
  0.00000000E+00  0.00000000E+00  0.00000000E+00  0.00000000E+00  0.00000000E+00
  0.00000000E+00  0.00000000E+00  0.00000000E+00  0.00000000E+00  1.00000000E+00
  0.00000000E+00  3.26663306E-17  2.90298169E-17  0.00000000E+00  0.00000000E+00
  0.00000000E+00 -1.18639685E-16  0.00000000E+00  0.00000000E+00  0.00000000E+00
  5.66571983E-17  0.00000000E+00  0.00000000E+00  0.00000000E+00  1.00249567E-16
  0.00000000E+00  0.00000000E+00  0.00000000E+00  1.00000000E+00  0.00000000E+00
  0.00000000E+00  0.00000000E+00  0.00000000E+00 -3.08427338E-01 -1.57173734E-01
  0.00000000E+00  0.00000000E+00  0.00000000E+00  9.94219717E-01  0.00000000E+00
  0.00000000E+00  0.00000000E+00  8.82862496E-02  0.00000000E+00  0.00000000E+00
  0.00000000E+00 -9.20318709E-01  0.00000000E+00  0.00000000E+00  0.00000000E+00
  2.17796360E-16  0.00000000E+00  0.00000000E+00  0.00000000E+00  0.00000000E+00
  1.96171304E+00 -1.92434664E+00  0.00000000E+00  0.00000000E+00  0.00000000E+00
 -3.88719623E-01  0.00000000E+00  0.00000000E+00  0.00000000E+00  9.59313419E-01
  0.00000000E+00  0.00000000E+00  0.00000000E+00 -6.56693937E-01  0.00000000E+00
  0.00000000E+00  0.00000000E+00 -4.85145826E-17  0.00000000E+00  0.00000000E+00
  0.00000000E+00  0.00000000E+00 -8.64888929E-01  1.19710353E+00  0.00000000E+00
  0.00000000E+00  0.00000000E+00 -1.64134123E+00  0.00000000E+00  0.00000000E+00
  0.00000000E+00  2.51469247E+00  0.00000000E+00  0.00000000E+00  0.00000000E+00
 -1.44649769E+00  0.00000000E+00  0.00000000E+00  0.00000000E+00 -1.97272031E-16
  0.00000000E+00  0.00000000E+00  0.00000000E+00  0.00000000E+00  0.00000000E+00
  0.00000000E+00  0.00000000E+00  0.00000000E+00  0.00000000E+00  0.00000000E+00
  0.00000000E+00  0.00000000E+00  0.00000000E+00  0.00000000E+00  0.00000000E+00
  0.00000000E+00  0.00000000E+00  0.00000000E+00  0.00000000E+00  0.00000000E+00
  0.00000000E+00  0.00000000E+00  0.00000000E+00  0.00000000E+00  0.00000000E+00
  1.00000000E+00  0.00000000E+00  0.00000000E+00  0.00000000E+00  0.00000000E+00
  0.00000000E+00  0.00000000E+00  0.00000000E+00  0.00000000E+00  0.00000000E+00
  0.00000000E+00  0.00000000E+00  0.00000000E+00  0.00000000E+00  0.00000000E+00
  0.00000000E+00  0.00000000E+00  0.00000000E+00  0.00000000E+00  1.00000000E+00
  0.00000000E+00  0.00000000E+00  0.00000000E+00  0.00000000E+00  0.00000000E+00
  0.00000000E+00  0.00000000E+00  0.00000000E+00  0.00000000E+00  0.00000000E+00
  0.00000000E+00  0.00000000E+00  0.00000000E+00  0.00000000E+00  0.00000000E+00
  0.00000000E+00  0.00000000E+00  0.00000000E+00  0.00000000E+00  0.00000000E+00
  0.00000000E+00  0.00000000E+00  1.00000000E+00  0.00000000E+00  0.00000000E+00
  0.00000000E+00  0.00000000E+00  0.00000000E+00  0.00000000E+00  2.60374247E-01
  0.00000000E+00  0.00000000E+00  0.00000000E+00  3.75569254E-01  0.00000000E+00
  0.00000000E+00  0.00000000E+00  3.86371087E-01  0.00000000E+00  0.00000000E+00
  0.00000000E+00  2.87220663E-01  0.00000000E+00  0.00000000E+00  0.00000000E+00
  0.00000000E+00  0.00000000E+00  0.00000000E+00  0.00000000E+00  0.00000000E+00
  0.00000000E+00  6.01123738E-01  0.00000000E+00  0.00000000E+00  0.00000000E+00
  3.13723242E-01  0.00000000E+00  0.00000000E+00  0.00000000E+00 -2.96391563E-01
  0.00000000E+00  0.00000000E+00  0.00000000E+00 -5.56453052E-01  0.00000000E+00
  0.00000000E+00  0.00000000E+00  0.00000000E+00  0.00000000E+00  0.00000000E+00
  0.00000000E+00  0.00000000E+00  0.00000000E+00  8.88619448E-01  0.00000000E+00
  0.00000000E+00  0.00000000E+00 -7.07917912E-01  0.00000000E+00  0.00000000E+00
  0.00000000E+00 -5.42390647E-01  0.00000000E+00  0.00000000E+00  0.00000000E+00
  8.49739167E-01  0.00000000E+00  0.00000000E+00  0.00000000E+00  0.00000000E+00
  0.00000000E+00  0.00000000E+00  0.00000000E+00  0.00000000E+00  0.00000000E+00
  7.94252908E-01  0.00000000E+00  0.00000000E+00  0.00000000E+00 -1.63241551E+00
  0.00000000E+00  0.00000000E+00  0.00000000E+00  1.81753127E+00  0.00000000E+00
  0.00000000E+00  0.00000000E+00 -1.03042538E+00  0.00000000E+00  0.00000000E+00
  0.00000000E+00  0.00000000E+00  0.00000000E+00  0.00000000E+00  0.00000000E+00
  0.00000000E+00  2.60374247E-01  0.00000000E+00  0.00000000E+00  0.00000000E+00
  3.75569254E-01  0.00000000E+00  0.00000000E+00  0.00000000E+00  3.86371087E-01
  0.00000000E+00  0.00000000E+00  0.00000000E+00  2.87220663E-01  0.00000000E+00
  0.00000000E+00  0.00000000E+00  0.00000000E+00  0.00000000E+00  0.00000000E+00
  0.00000000E+00  0.00000000E+00  0.00000000E+00  6.01123738E-01  0.00000000E+00
  0.00000000E+00  0.00000000E+00  3.13723242E-01  0.00000000E+00  0.00000000E+00
  0.00000000E+00 -2.96391563E-01  0.00000000E+00  0.00000000E+00  0.00000000E+00
 -5.56453052E-01  0.00000000E+00  0.00000000E+00  0.00000000E+00  0.00000000E+00
  0.00000000E+00  0.00000000E+00  0.00000000E+00  0.00000000E+00  0.00000000E+00
  8.88619448E-01  0.00000000E+00  0.00000000E+00  0.00000000E+00 -7.07917912E-01
  0.00000000E+00  0.00000000E+00  0.00000000E+00 -5.42390647E-01  0.00000000E+00
  0.00000000E+00  0.00000000E+00  8.49739167E-01  0.00000000E+00  0.00000000E+00
  0.00000000E+00  0.00000000E+00  0.00000000E+00  0.00000000E+00  0.00000000E+00
  0.00000000E+00  0.00000000E+00  7.94252908E-01  0.00000000E+00  0.00000000E+00
  0.00000000E+00 -1.63241551E+00  0.00000000E+00  0.00000000E+00  0.00000000E+00
  1.81753127E+00  0.00000000E+00  0.00000000E+00  0.00000000E+00 -1.03042538E+00
  0.00000000E+00  0.00000000E+00  0.00000000E+00  0.00000000E+00  0.00000000E+00
  0.00000000E+00  0.00000000E+00  0.00000000E+00  2.60374247E-01  0.00000000E+00
  0.00000000E+00  0.00000000E+00  3.75569254E-01  0.00000000E+00  0.00000000E+00
  0.00000000E+00  3.86371087E-01  0.00000000E+00  0.00000000E+00  0.00000000E+00
  2.87220663E-01  0.00000000E+00  0.00000000E+00  0.00000000E+00  0.00000000E+00
  0.00000000E+00  0.00000000E+00  0.00000000E+00  0.00000000E+00  0.00000000E+00
  6.01123738E-01  0.00000000E+00  0.00000000E+00  0.00000000E+00  3.13723242E-01
  0.00000000E+00  0.00000000E+00  0.00000000E+00 -2.96391563E-01  0.00000000E+00
  0.00000000E+00  0.00000000E+00 -5.56453052E-01  0.00000000E+00  0.00000000E+00
  0.00000000E+00  0.00000000E+00  0.00000000E+00  0.00000000E+00  0.00000000E+00
  0.00000000E+00  0.00000000E+00  8.88619448E-01  0.00000000E+00  0.00000000E+00
  0.00000000E+00 -7.07917912E-01  0.00000000E+00  0.00000000E+00  0.00000000E+00
 -5.42390647E-01  0.00000000E+00  0.00000000E+00  0.00000000E+00  8.49739167E-01
  0.00000000E+00  0.00000000E+00  0.00000000E+00  0.00000000E+00  0.00000000E+00
  0.00000000E+00  0.00000000E+00  0.00000000E+00  0.00000000E+00  7.94252908E-01
  0.00000000E+00  0.00000000E+00  0.00000000E+00 -1.63241551E+00  0.00000000E+00
  0.00000000E+00  0.00000000E+00  1.81753127E+00  0.00000000E+00  0.00000000E+00
  0.00000000E+00 -1.03042538E+00  0.00000000E+00  0.00000000E+00  0.00000000E+00
  0.00000000E+00  0.00000000E+00  0.00000000E+00  0.00000000E+00
Total SCF Density                          R   N=         253
  6.73686367E-01  5.99994523E-01  5.60744311E-01  0.00000000E+00  0.00000000E+00
  0.00000000E+00  0.00000000E+00  0.00000000E+00  0.00000000E+00  0.00000000E+00
  0.00000000E+00  0.00000000E+00  0.00000000E+00  0.00000000E+00  0.00000000E+00
 -2.84475138E-01 -4.59741778E-01  0.00000000E+00  0.00000000E+00  0.00000000E+00
  1.73472607E+00  0.00000000E+00  0.00000000E+00  0.00000000E+00  0.00000000E+00
  0.00000000E+00  0.00000000E+00  0.00000000E+00  0.00000000E+00  0.00000000E+00
  0.00000000E+00  0.00000000E+00  0.00000000E+00  0.00000000E+00  0.00000000E+00
  0.00000000E+00  0.00000000E+00  0.00000000E+00  0.00000000E+00  0.00000000E+00
  0.00000000E+00  0.00000000E+00  0.00000000E+00  0.00000000E+00  0.00000000E+00
 -6.25294188E-02 -9.80114448E-02  0.00000000E+00  0.00000000E+00  0.00000000E+00
  3.57499926E-01  0.00000000E+00  0.00000000E+00  0.00000000E+00  7.36994472E-02
  0.00000000E+00  0.00000000E+00  0.00000000E+00  0.00000000E+00  0.00000000E+00
  0.00000000E+00  0.00000000E+00  0.00000000E+00  0.00000000E+00  0.00000000E+00
  0.00000000E+00  0.00000000E+00  0.00000000E+00  0.00000000E+00  0.00000000E+00
  0.00000000E+00  0.00000000E+00  0.00000000E+00  0.00000000E+00  0.00000000E+00
  0.00000000E+00  0.00000000E+00  0.00000000E+00  0.00000000E+00  0.00000000E+00
  0.00000000E+00  0.00000000E+00  0.00000000E+00  0.00000000E+00  0.00000000E+00
  0.00000000E+00  0.00000000E+00  0.00000000E+00  0.00000000E+00  0.00000000E+00
  0.00000000E+00  6.10444009E-03  9.06209952E-03  0.00000000E+00  0.00000000E+00
  0.00000000E+00 -3.09402188E-02  0.00000000E+00  0.00000000E+00  0.00000000E+00
 -6.38271131E-03  0.00000000E+00  0.00000000E+00  0.00000000E+00  5.53537304E-04
  0.00000000E+00  0.00000000E+00  0.00000000E+00  0.00000000E+00  0.00000000E+00
  0.00000000E+00  0.00000000E+00  0.00000000E+00  0.00000000E+00  0.00000000E+00
  0.00000000E+00  0.00000000E+00  0.00000000E+00  0.00000000E+00  0.00000000E+00
  0.00000000E+00  0.00000000E+00  0.00000000E+00  0.00000000E+00  0.00000000E+00
  0.00000000E+00  0.00000000E+00  0.00000000E+00  0.00000000E+00  0.00000000E+00
  0.00000000E+00  0.00000000E+00  0.00000000E+00  0.00000000E+00  0.00000000E+00
  0.00000000E+00  0.00000000E+00  0.00000000E+00  0.00000000E+00  0.00000000E+00
  0.00000000E+00  0.00000000E+00  0.00000000E+00  0.00000000E+00  0.00000000E+00
  0.00000000E+00  0.00000000E+00  0.00000000E+00  0.00000000E+00  0.00000000E+00
  0.00000000E+00  0.00000000E+00  0.00000000E+00 -4.79342564E-33 -1.11275952E-33
  0.00000000E+00  0.00000000E+00  0.00000000E+00 -1.11917929E-32  0.00000000E+00
  0.00000000E+00  0.00000000E+00 -1.56214318E-33  0.00000000E+00  0.00000000E+00
  0.00000000E+00 -2.51440854E-34  0.00000000E+00  0.00000000E+00  0.00000000E+00
  4.55987585E-31 -1.86447565E-33 -2.42567321E-33  0.00000000E+00  0.00000000E+00
  0.00000000E+00  6.77325006E-33  0.00000000E+00  0.00000000E+00  0.00000000E+00
  1.40055328E-33  0.00000000E+00  0.00000000E+00  0.00000000E+00 -1.22045153E-34
  0.00000000E+00  0.00000000E+00  0.00000000E+00  6.18705198E-48  3.01567710E-62
 -3.47864414E-33 -2.50086919E-33  0.00000000E+00  0.00000000E+00  0.00000000E+00
 -3.20361829E-33  0.00000000E+00  0.00000000E+00  0.00000000E+00 -6.35289197E-34
  0.00000000E+00  0.00000000E+00  0.00000000E+00  5.05580790E-35  0.00000000E+00
  0.00000000E+00  0.00000000E+00 -7.79302453E-48 -7.63097714E-64  2.66947352E-62
 -2.25352397E-32 -2.60934355E-32  0.00000000E+00  0.00000000E+00  0.00000000E+00
  2.56857256E-32  0.00000000E+00  0.00000000E+00  0.00000000E+00  6.78281065E-33
  0.00000000E+00  0.00000000E+00  0.00000000E+00 -1.13973458E-33  0.00000000E+00
  0.00000000E+00  0.00000000E+00 -2.18952885E-47 -2.96583554E-48 -4.06004840E-48
  4.55987585E-31 -4.10703152E-33 -6.73621359E-33  0.00000000E+00  0.00000000E+00
  0.00000000E+00  2.58177128E-32  0.00000000E+00  0.00000000E+00  0.00000000E+00
  5.31983778E-33  0.00000000E+00  0.00000000E+00  0.00000000E+00 -4.60271065E-34
  0.00000000E+00  0.00000000E+00  0.00000000E+00 -2.76075542E-48  4.33021617E-64
 -5.40044359E-65  3.91103660E-47  2.75435075E-62
Mulliken Charges                           R   N=           1
  3.00000000E+00
ONIOM Charges                              I   N=          16
           3           0           0           0           0           0
           0           0           0           0           0           0
           0           0           0           0
ONIOM Multiplicities                       I   N=          16
           1           0           0           0           0           0
           0           0           0           0           0           0
           0           0           0           0