fubar                                                                   
SP        UPBE1PBE                                                    6-311+G(d,p)        
Number of atoms                            I                1
Info1-9                                    I   N=           9
          11          10           0           0           0         110
           1          18       -1302
Full Title                                 C   N=           1
fubar       
Route                                      C   N=           3
#PBE1PBE/6-311+G(d,p) scf=tight     
Charge                                     I                2
Multiplicity                               I                3
Number of electrons                        I               14
Number of alpha electrons                  I                8
Number of beta electrons                   I                6
Number of basis functions                  I               30
Number of independent functions            I               30
Number of point charges in /Mol/           I                0
Number of translation vectors              I                0
Atomic numbers                             I   N=           1
          16
Nuclear charges                            R   N=           1
  1.60000000E+01
Current cartesian coordinates              R   N=           3
  0.00000000E+00  0.00000000E+00  0.00000000E+00
Number of symbols in /Mol/                 I                0
Int Atom Types                             I   N=           1
           0
Force Field                                I                0
Atom Types                                 C   N=           1
            
MM charges                                 R   N=           1
  0.00000000E+00
Integer atomic weights                     I   N=           1
          32
Real atomic weights                        R   N=           1
  3.19720718E+01
Atom fragment info                         I   N=           1
           0
Atom residue num                           I   N=           1
           0
Nuclear spins                              I   N=           1
           0
Nuclear ZEff                               R   N=           1
 -1.36000000E+01
Nuclear ZNuc                               R   N=           1
  1.60000000E+01
Nuclear QMom                               R   N=           1
  0.00000000E+00
Nuclear GFac                               R   N=           1
  0.00000000E+00
MicOpt                                     I   N=           1
          -1
Number of residues                         I                0
Number of secondary structures             I                0
SymInf integers                            I   N=          26
           1           8           1           1           1           1
          -1          -1          -1           1          -1          -1
          -1           1          -1          -1          -1          -1
           1           1           1          -1           1           1
           1          -1
RotTr to input orientation                 R   N=          12
  0.00000000E+00  0.00000000E+00 -1.00000000E+00  0.00000000E+00  1.00000000E+00
  0.00000000E+00  1.00000000E+00  0.00000000E+00  0.00000000E+00  0.00000000E+00
  0.00000000E+00  0.00000000E+00
Number of contracted shells                I               13
Number of primitive shells                 I               24
Pure/Cartesian d shells                    I                0
Pure/Cartesian f shells                    I                0
Highest angular momentum                   I                2
Largest degree of contraction              I                6
Shell types                                I   N=          13
           0           0           0           0           0           0
          -1           1           1           1           1           1
          -2
Number of primitives per shell             I   N=          13
           6           3           1           1           1           1
           1           4           2           1           1           1
           1
Shell to atom map                          I   N=          13
           1           1           1           1           1           1
           1           1           1           1           1           1
           1
Primitive exponents                        R   N=          24
  9.34134000E+04  1.39617000E+04  3.16991000E+03  9.02456000E+02  2.97158000E+02
  1.08702000E+02  1.08702000E+02  4.31553000E+01  1.81079000E+01  5.56009000E+00
  2.13183000E+00  4.20403000E-01  1.36045000E-01  4.05000000E-02  4.95040000E+02
  1.17221000E+02  3.77749000E+01  1.40584000E+01  5.56574000E+00  2.26297000E+00
  8.07994000E-01  2.77460000E-01  7.71410000E-02  6.50000000E-01
Contraction coefficients                   R   N=          24
  7.42999957E-04  5.79299966E-03  2.99539983E-02  1.19027993E-01  3.68431979E-01
  5.77298966E-01  1.43186060E-01  6.24465262E-01  2.83366119E-01  1.00000000E+00
  1.00000000E+00  1.00000000E+00  1.00000000E+00  1.00000000E+00  8.30900251E-03
  6.40240194E-02  2.77614084E-01  7.45076225E-01  6.13711672E-01  4.43817763E-01
  1.00000000E+00  1.00000000E+00  1.00000000E+00  1.00000000E+00
P(S=P) Contraction coefficients            R   N=          24
  0.00000000E+00  0.00000000E+00  0.00000000E+00  0.00000000E+00  0.00000000E+00
  0.00000000E+00  0.00000000E+00  0.00000000E+00  0.00000000E+00  0.00000000E+00
  0.00000000E+00  0.00000000E+00  0.00000000E+00  1.00000000E+00  0.00000000E+00
  0.00000000E+00  0.00000000E+00  0.00000000E+00  0.00000000E+00  0.00000000E+00
  0.00000000E+00  0.00000000E+00  0.00000000E+00  0.00000000E+00
Coordinates of each shell                  R   N=          39
  0.00000000E+00  0.00000000E+00  0.00000000E+00  0.00000000E+00  0.00000000E+00
  0.00000000E+00  0.00000000E+00  0.00000000E+00  0.00000000E+00  0.00000000E+00
  0.00000000E+00  0.00000000E+00  0.00000000E+00  0.00000000E+00  0.00000000E+00
  0.00000000E+00  0.00000000E+00  0.00000000E+00  0.00000000E+00  0.00000000E+00
  0.00000000E+00  0.00000000E+00  0.00000000E+00  0.00000000E+00  0.00000000E+00
  0.00000000E+00  0.00000000E+00  0.00000000E+00  0.00000000E+00  0.00000000E+00
  0.00000000E+00  0.00000000E+00  0.00000000E+00  0.00000000E+00  0.00000000E+00
  0.00000000E+00  0.00000000E+00  0.00000000E+00  0.00000000E+00
Num ILSW                                   I              100
ILSW                                       I   N=         100
           1           0           0           0           2           0
           0           0           0           0        1009          -1
           5           0           0           0           0           0
           0           0           0           0           0           0
           1           0           0           0           0           0
           0           0      100000           0          -1           0
           0           0           0           0           0           0
           0           0           0           1           0           0
           0 -2000000000           1           0           0           0
           0           1           4          52           0           0
           0           0          13           0           0           0
           0           0           0           1           0           1
           0           0           0           0           0           0
           0           0           0           0           0           0
           0           0           0           0           0           0
           0           0           0           0           0           0
           0           0           0           0
Num RLSW                                   I               52
RLSW                                       R   N=          52
  7.50000000E-01  7.50000000E-01  1.00000000E+00  1.00000000E+00  2.50000000E-01
  0.00000000E+00  0.00000000E+00  1.00000000E+00  0.00000000E+00  0.00000000E+00
  0.00000000E+00  0.00000000E+00  1.00000000E+00  0.00000000E+00  0.00000000E+00
  0.00000000E+00  0.00000000E+00  1.00000000E+00  0.00000000E+00  0.00000000E+00
  0.00000000E+00  0.00000000E+00  1.00000000E+00  0.00000000E+00  0.00000000E+00
  0.00000000E+00  0.00000000E+00  1.00000000E+00  0.00000000E+00  0.00000000E+00
  0.00000000E+00  0.00000000E+00  1.00000000E+00  0.00000000E+00  0.00000000E+00
  0.00000000E+00  0.00000000E+00  0.00000000E+00  1.00000000E+00  1.00000000E+00
  0.00000000E+00  1.00000000E+00  0.00000000E+00  0.00000000E+00  0.00000000E+00
  0.00000000E+00  0.00000000E+00  0.00000000E+00  0.00000000E+00  0.00000000E+00
  0.00000000E+00  0.00000000E+00
MxBond                                     I                1
NBond                                      I   N=           1
           0
IBond                                      I   N=           1
           0
RBond                                      R   N=           1
  0.00000000E+00
Virial Ratio                               R      2.000975460594534E+00
SCF Energy                                 R     -3.967330322982990E+02
Total Energy                               R     -3.967330322982990E+02
S**2                                       R      2.003227524751425E+00
S**2 after annihilation                    R      2.000000019490196E+00
RMS Density                                R      5.957849201774886E-09
Job Status                                 I                1
Nuclear derivative order                   I                0
External E-field                           R   N=          35
  0.00000000E+00  0.00000000E+00  0.00000000E+00  0.00000000E+00  0.00000000E+00
  0.00000000E+00  0.00000000E+00  0.00000000E+00  0.00000000E+00  0.00000000E+00
  0.00000000E+00  0.00000000E+00  0.00000000E+00  0.00000000E+00  0.00000000E+00
  0.00000000E+00  0.00000000E+00  0.00000000E+00  0.00000000E+00  0.00000000E+00
  0.00000000E+00  0.00000000E+00  0.00000000E+00  0.00000000E+00  0.00000000E+00
  0.00000000E+00  0.00000000E+00  0.00000000E+00  0.00000000E+00  0.00000000E+00
  0.00000000E+00  0.00000000E+00  0.00000000E+00  0.00000000E+00  0.00000000E+00
IOpCl                                      I                1
IROHF                                      I                0
Alpha Orbital Energies                     R   N=          30
 -9.00531707E+01 -9.00694373E+00 -6.94874501E+00 -6.94389785E+00 -6.94389785E+00
 -1.56056867E+00 -1.12314986E+00 -1.12314986E+00 -9.99809060E-01 -4.09198638E-01
 -3.15202099E-01 -3.15202099E-01 -3.13012996E-01 -1.27188857E-01 -1.27188857E-01
 -1.17991277E-01 -1.17991277E-01 -1.06013038E-01 -1.06013038E-01 -1.05522396E-01
 -1.02535682E-01 -2.11258511E-02  8.87061583E-01  8.87061583E-01  8.93961600E-01
  6.66402343E+00  1.63757154E+01  1.63769359E+01  1.63769359E+01  1.87927752E+02
Beta Orbital Energies                      R   N=          30
 -9.00373612E+01 -8.99224522E+00 -6.94060484E+00 -6.91270461E+00 -6.91270461E+00
 -1.43582951E+00 -9.58462788E-01 -8.95700578E-01 -8.95700578E-01 -3.82136362E-01
 -2.98991995E-01 -2.85608427E-01 -2.85608427E-01 -9.66544975E-02 -8.43267300E-02
 -8.43267300E-02 -4.49504177E-02 -2.88092652E-02 -2.88092652E-02  1.40389400E-02
  2.24367847E-02  2.24367847E-02  9.15599556E-01  9.57494706E-01  9.57494706E-01
  6.69639149E+00  1.63873244E+01  1.64173215E+01  1.64173215E+01  1.87941615E+02
Alpha MO coefficients                      R   N=         900
  4.11043021E-01  6.54302625E-01  1.50098476E-02 -4.13365741E-03  1.35514971E-03
 -7.74530823E-04  2.39878395E-04  0.00000000E+00  0.00000000E+00  0.00000000E+00
  0.00000000E+00  0.00000000E+00  0.00000000E+00  0.00000000E+00  0.00000000E+00
  0.00000000E+00  0.00000000E+00  0.00000000E+00  0.00000000E+00  0.00000000E+00
  0.00000000E+00  0.00000000E+00  0.00000000E+00  0.00000000E+00  0.00000000E+00
 -3.28150091E-06  0.00000000E+00  0.00000000E+00 -5.68372631E-06  0.00000000E+00
 -1.19859884E-01 -3.21560973E-01  5.22674698E-01  5.90865178E-01  4.76958874E-02
 -1.69502659E-02  4.75863387E-03  0.00000000E+00  0.00000000E+00  0.00000000E+00
  0.00000000E+00  0.00000000E+00  0.00000000E+00  0.00000000E+00  0.00000000E+00
  0.00000000E+00  0.00000000E+00  0.00000000E+00  0.00000000E+00  0.00000000E+00
  0.00000000E+00  0.00000000E+00  0.00000000E+00  0.00000000E+00  0.00000000E+00
 -3.92378131E-05  0.00000000E+00  0.00000000E+00 -6.79618859E-05  0.00000000E+00
  0.00000000E+00  0.00000000E+00  0.00000000E+00  0.00000000E+00  0.00000000E+00
  0.00000000E+00  0.00000000E+00  0.00000000E+00 -1.82979768E-03  0.00000000E+00
  0.00000000E+00  3.77470367E-01  0.00000000E+00  0.00000000E+00  7.09372810E-01
  0.00000000E+00  0.00000000E+00  5.60488333E-02  0.00000000E+00  0.00000000E+00
 -6.57866301E-03  0.00000000E+00  0.00000000E+00  3.51465166E-03  0.00000000E+00
  0.00000000E+00  0.00000000E+00  0.00000000E+00  0.00000000E+00  0.00000000E+00
  0.00000000E+00  0.00000000E+00  0.00000000E+00  0.00000000E+00  0.00000000E+00
  0.00000000E+00  0.00000000E+00 -1.53034311E-03  0.00000000E+00  0.00000000E+00
  3.79022125E-01  0.00000000E+00  0.00000000E+00  7.08784614E-01  0.00000000E+00
  0.00000000E+00  5.43473772E-02  0.00000000E+00  0.00000000E+00 -5.67199033E-03
  0.00000000E+00  0.00000000E+00  2.95575640E-03  0.00000000E+00  0.00000000E+00
  0.00000000E+00  0.00000000E+00  0.00000000E+00  0.00000000E+00  0.00000000E+00
  0.00000000E+00  0.00000000E+00  0.00000000E+00  0.00000000E+00  0.00000000E+00
  0.00000000E+00  0.00000000E+00  0.00000000E+00  0.00000000E+00 -1.53034311E-03
  0.00000000E+00  0.00000000E+00  3.79022125E-01  0.00000000E+00  0.00000000E+00
  7.08784614E-01  0.00000000E+00  0.00000000E+00  5.43473772E-02  0.00000000E+00
  0.00000000E+00 -5.67199033E-03  0.00000000E+00  0.00000000E+00  2.95575640E-03
  0.00000000E+00  0.00000000E+00  0.00000000E+00  0.00000000E+00  0.00000000E+00
  3.98586747E-02  1.13670984E-01 -2.44379532E-01 -4.38228038E-01  9.16040812E-01
  3.28374385E-01 -3.47562967E-02  0.00000000E+00  0.00000000E+00  0.00000000E+00
  0.00000000E+00  0.00000000E+00  0.00000000E+00  0.00000000E+00  0.00000000E+00
  0.00000000E+00  0.00000000E+00  0.00000000E+00  0.00000000E+00  0.00000000E+00
  0.00000000E+00  0.00000000E+00  0.00000000E+00  0.00000000E+00  0.00000000E+00
  7.96668721E-03  0.00000000E+00  0.00000000E+00  1.37987070E-02  0.00000000E+00
  0.00000000E+00  0.00000000E+00  0.00000000E+00  0.00000000E+00  0.00000000E+00
  0.00000000E+00  0.00000000E+00 -1.16650429E-02  0.00000000E+00  0.00000000E+00
 -1.24764319E-01  0.00000000E+00  0.00000000E+00 -2.42387969E-01  0.00000000E+00
  0.00000000E+00  4.02597734E-01  0.00000000E+00  0.00000000E+00  6.81698010E-01
  0.00000000E+00  0.00000000E+00  6.93609732E-02  0.00000000E+00  0.00000000E+00
  0.00000000E+00  0.00000000E+00  0.00000000E+00  0.00000000E+00  0.00000000E+00
  0.00000000E+00  0.00000000E+00  0.00000000E+00  0.00000000E+00  0.00000000E+00
  0.00000000E+00  0.00000000E+00  0.00000000E+00  0.00000000E+00 -1.16650429E-02
  0.00000000E+00  0.00000000E+00 -1.24764319E-01  0.00000000E+00  0.00000000E+00
 -2.42387969E-01  0.00000000E+00  0.00000000E+00  4.02597734E-01  0.00000000E+00
  0.00000000E+00  6.81698010E-01  0.00000000E+00  0.00000000E+00  6.93609732E-02
  0.00000000E+00  0.00000000E+00  0.00000000E+00  0.00000000E+00  0.00000000E+00
  0.00000000E+00  0.00000000E+00  0.00000000E+00  0.00000000E+00  0.00000000E+00
  0.00000000E+00  0.00000000E+00  0.00000000E+00 -2.26265842E-02  0.00000000E+00
  0.00000000E+00 -1.21951933E-01  0.00000000E+00  0.00000000E+00 -2.36418550E-01
  0.00000000E+00  0.00000000E+00  3.80671582E-01  0.00000000E+00  0.00000000E+00
  6.83376936E-01  0.00000000E+00  0.00000000E+00  1.02300046E-01  0.00000000E+00
  0.00000000E+00  0.00000000E+00  0.00000000E+00  0.00000000E+00  0.00000000E+00
 -1.69539464E-02 -4.83110393E-02  1.03839141E-01  2.31401348E-01 -8.24672577E-01
  1.17821390E-01  1.05339651E+00  0.00000000E+00  0.00000000E+00  0.00000000E+00
  0.00000000E+00  0.00000000E+00  0.00000000E+00  0.00000000E+00  0.00000000E+00
  0.00000000E+00  0.00000000E+00  0.00000000E+00  0.00000000E+00  0.00000000E+00
  0.00000000E+00  0.00000000E+00  0.00000000E+00  0.00000000E+00  0.00000000E+00
 -1.60948979E-03  0.00000000E+00  0.00000000E+00 -2.78771809E-03  0.00000000E+00
  0.00000000E+00  0.00000000E+00  0.00000000E+00  0.00000000E+00  0.00000000E+00
  0.00000000E+00  0.00000000E+00  5.38555629E-01  0.00000000E+00  0.00000000E+00
  5.12432870E-02  0.00000000E+00  0.00000000E+00  1.00969012E-01  0.00000000E+00
  0.00000000E+00 -2.22564451E-01  0.00000000E+00  0.00000000E+00 -3.67325182E-01
  0.00000000E+00  0.00000000E+00  6.03101452E-01  0.00000000E+00  0.00000000E+00
  0.00000000E+00  0.00000000E+00  0.00000000E+00  0.00000000E+00  0.00000000E+00
  0.00000000E+00  0.00000000E+00  0.00000000E+00  0.00000000E+00  0.00000000E+00
  0.00000000E+00  0.00000000E+00  0.00000000E+00  0.00000000E+00  5.38555629E-01
  0.00000000E+00  0.00000000E+00  5.12432870E-02  0.00000000E+00  0.00000000E+00
  1.00969012E-01  0.00000000E+00  0.00000000E+00 -2.22564451E-01  0.00000000E+00
  0.00000000E+00 -3.67325182E-01  0.00000000E+00  0.00000000E+00  6.03101452E-01
  0.00000000E+00  0.00000000E+00  0.00000000E+00  0.00000000E+00  0.00000000E+00
  0.00000000E+00  0.00000000E+00  0.00000000E+00  0.00000000E+00  0.00000000E+00
  0.00000000E+00  0.00000000E+00  0.00000000E+00  5.57578314E-01  0.00000000E+00
  0.00000000E+00  5.28957951E-02  0.00000000E+00  0.00000000E+00  1.04103939E-01
  0.00000000E+00  0.00000000E+00 -2.22866109E-01  0.00000000E+00  0.00000000E+00
 -3.83594174E-01  0.00000000E+00  0.00000000E+00  5.82319540E-01  0.00000000E+00
  0.00000000E+00  0.00000000E+00  0.00000000E+00  0.00000000E+00  0.00000000E+00
  0.00000000E+00  0.00000000E+00  0.00000000E+00  0.00000000E+00  0.00000000E+00
  0.00000000E+00  0.00000000E+00  0.00000000E+00  0.00000000E+00  0.00000000E+00
  0.00000000E+00  0.00000000E+00  0.00000000E+00  0.00000000E+00  0.00000000E+00
  0.00000000E+00  0.00000000E+00  0.00000000E+00  0.00000000E+00  0.00000000E+00
  0.00000000E+00  0.00000000E+00  0.00000000E+00  0.00000000E+00  0.00000000E+00
  0.00000000E+00  1.00000000E+00  0.00000000E+00  0.00000000E+00  0.00000000E+00
  1.97848441E-16  5.19404118E-16 -6.91792161E-16 -3.88180827E-15  1.41179895E-14
 -1.78302828E-14  9.77136889E-15  0.00000000E+00  0.00000000E+00  0.00000000E+00
  0.00000000E+00  0.00000000E+00  0.00000000E+00  0.00000000E+00  0.00000000E+00
  0.00000000E+00  0.00000000E+00  0.00000000E+00  0.00000000E+00  0.00000000E+00
  0.00000000E+00  0.00000000E+00  0.00000000E+00  0.00000000E+00  0.00000000E+00
  8.66025404E-01  0.00000000E+00  0.00000000E+00 -5.00000000E-01  0.00000000E+00
  0.00000000E+00  0.00000000E+00  0.00000000E+00  0.00000000E+00  0.00000000E+00
  0.00000000E+00  0.00000000E+00  0.00000000E+00  0.00000000E+00  0.00000000E+00
  0.00000000E+00  0.00000000E+00  0.00000000E+00  0.00000000E+00  0.00000000E+00
  0.00000000E+00  0.00000000E+00  0.00000000E+00  0.00000000E+00  0.00000000E+00
  0.00000000E+00  0.00000000E+00  0.00000000E+00  0.00000000E+00  0.00000000E+00
  0.00000000E+00  0.00000000E+00  0.00000000E+00  0.00000000E+00  1.00000000E+00
  0.00000000E+00  0.00000000E+00  0.00000000E+00  0.00000000E+00  0.00000000E+00
  0.00000000E+00  0.00000000E+00  0.00000000E+00  0.00000000E+00  0.00000000E+00
  0.00000000E+00  0.00000000E+00  0.00000000E+00  0.00000000E+00  0.00000000E+00
  0.00000000E+00  0.00000000E+00  0.00000000E+00  0.00000000E+00  0.00000000E+00
  0.00000000E+00  0.00000000E+00  0.00000000E+00  0.00000000E+00  0.00000000E+00
  0.00000000E+00  0.00000000E+00  1.00000000E+00  0.00000000E+00  0.00000000E+00
  0.00000000E+00  0.00000000E+00  0.00000000E+00  0.00000000E+00  0.00000000E+00
  0.00000000E+00  0.00000000E+00  0.00000000E+00  0.00000000E+00 -2.27572556E+00
  0.00000000E+00  0.00000000E+00  5.06574216E-02  0.00000000E+00  0.00000000E+00
  9.65736434E-02  0.00000000E+00  0.00000000E+00 -2.06943045E-01  0.00000000E+00
  0.00000000E+00 -5.46811660E-01  0.00000000E+00  0.00000000E+00  2.57538390E+00
  0.00000000E+00  0.00000000E+00  0.00000000E+00  0.00000000E+00  0.00000000E+00
  0.00000000E+00  0.00000000E+00  0.00000000E+00  0.00000000E+00  0.00000000E+00
  0.00000000E+00  0.00000000E+00 -2.27572556E+00  0.00000000E+00  0.00000000E+00
  5.06574216E-02  0.00000000E+00  0.00000000E+00  9.65736434E-02  0.00000000E+00
  0.00000000E+00 -2.06943045E-01  0.00000000E+00  0.00000000E+00 -5.46811660E-01
  0.00000000E+00  0.00000000E+00  2.57538390E+00  0.00000000E+00  0.00000000E+00
  0.00000000E+00  0.00000000E+00  0.00000000E+00  0.00000000E+00  0.00000000E+00
  0.00000000E+00  0.00000000E+00  0.00000000E+00  0.00000000E+00  0.00000000E+00
  0.00000000E+00  0.00000000E+00  0.00000000E+00 -2.27387654E+00  0.00000000E+00
  0.00000000E+00  5.22334575E-02  0.00000000E+00  0.00000000E+00  9.95220749E-02
  0.00000000E+00  0.00000000E+00 -2.07378288E-01  0.00000000E+00  0.00000000E+00
 -5.67638538E-01  0.00000000E+00  0.00000000E+00  2.58659560E+00  0.00000000E+00
  0.00000000E+00  0.00000000E+00  0.00000000E+00  0.00000000E+00  0.00000000E+00
 -6.62953435E-04 -2.03478930E-03  5.88035093E-03  2.76601378E-03 -4.87362196E-03
 -2.08907992E-02  1.21261138E-02  0.00000000E+00  0.00000000E+00  0.00000000E+00
  0.00000000E+00  0.00000000E+00  0.00000000E+00  0.00000000E+00  0.00000000E+00
  0.00000000E+00  0.00000000E+00  0.00000000E+00  0.00000000E+00  0.00000000E+00
  0.00000000E+00  0.00000000E+00  0.00000000E+00  0.00000000E+00  0.00000000E+00
  4.99926831E-01  0.00000000E+00  0.00000000E+00  8.65898671E-01  0.00000000E+00
 -2.61800353E-02 -7.31815748E-02  1.44395699E-01  4.37849672E-01 -2.07644097E+00
  2.88677774E+00 -1.50624241E+00  0.00000000E+00  0.00000000E+00  0.00000000E+00
  0.00000000E+00  0.00000000E+00  0.00000000E+00  0.00000000E+00  0.00000000E+00
  0.00000000E+00  0.00000000E+00  0.00000000E+00  0.00000000E+00  0.00000000E+00
  0.00000000E+00  0.00000000E+00  0.00000000E+00  0.00000000E+00  0.00000000E+00
  2.62337099E-03  0.00000000E+00  0.00000000E+00  4.54381184E-03  0.00000000E+00
  0.00000000E+00  0.00000000E+00  0.00000000E+00  0.00000000E+00  0.00000000E+00
  0.00000000E+00  0.00000000E+00  9.26091073E-01  0.00000000E+00  0.00000000E+00
  1.63594461E-01  0.00000000E+00  0.00000000E+00  3.87152543E-01  0.00000000E+00
  0.00000000E+00 -1.74842252E+00  0.00000000E+00  0.00000000E+00  2.07543261E+00
  0.00000000E+00  0.00000000E+00 -1.69450939E+00  0.00000000E+00  0.00000000E+00
  0.00000000E+00  0.00000000E+00  0.00000000E+00  0.00000000E+00  0.00000000E+00
  0.00000000E+00  0.00000000E+00  0.00000000E+00  0.00000000E+00  0.00000000E+00
  0.00000000E+00  0.00000000E+00  0.00000000E+00  0.00000000E+00  9.26091073E-01
  0.00000000E+00  0.00000000E+00  1.63594461E-01  0.00000000E+00  0.00000000E+00
  3.87152543E-01  0.00000000E+00  0.00000000E+00 -1.74842252E+00  0.00000000E+00
  0.00000000E+00  2.07543261E+00  0.00000000E+00  0.00000000E+00 -1.69450939E+00
  0.00000000E+00  0.00000000E+00  0.00000000E+00  0.00000000E+00  0.00000000E+00
  0.00000000E+00  0.00000000E+00  0.00000000E+00  0.00000000E+00  0.00000000E+00
  0.00000000E+00  0.00000000E+00  0.00000000E+00  9.19146841E-01  0.00000000E+00
  0.00000000E+00  1.65338586E-01  0.00000000E+00  0.00000000E+00  3.90835409E-01
  0.00000000E+00  0.00000000E+00 -1.75325294E+00  0.00000000E+00  0.00000000E+00
  2.06635586E+00  0.00000000E+00  0.00000000E+00 -1.68299522E+00  0.00000000E+00
  0.00000000E+00  0.00000000E+00  0.00000000E+00  0.00000000E+00  0.00000000E+00
  1.14464434E-01  4.52614469E-01 -2.51179053E+00  2.87726640E+00 -1.57023143E+00
  9.42131586E-01 -2.93509018E-01  0.00000000E+00  0.00000000E+00  0.00000000E+00
  0.00000000E+00  0.00000000E+00  0.00000000E+00  0.00000000E+00  0.00000000E+00
  0.00000000E+00  0.00000000E+00  0.00000000E+00  0.00000000E+00  0.00000000E+00
  0.00000000E+00  0.00000000E+00  0.00000000E+00  0.00000000E+00  0.00000000E+00
  4.70686511E-04  0.00000000E+00  0.00000000E+00  8.15252952E-04  0.00000000E+00
  0.00000000E+00  0.00000000E+00  0.00000000E+00  0.00000000E+00  0.00000000E+00
  0.00000000E+00  0.00000000E+00  0.00000000E+00  1.86306936E-01  0.00000000E+00
  0.00000000E+00 -1.21164001E+00  0.00000000E+00  0.00000000E+00  1.37398028E+00
  0.00000000E+00  0.00000000E+00 -9.41461027E-01  0.00000000E+00  0.00000000E+00
  5.69677240E-01  0.00000000E+00  0.00000000E+00 -3.51357418E-01  0.00000000E+00
  0.00000000E+00  0.00000000E+00  0.00000000E+00  0.00000000E+00  0.00000000E+00
  0.00000000E+00  0.00000000E+00  0.00000000E+00  0.00000000E+00  0.00000000E+00
  0.00000000E+00  0.00000000E+00  0.00000000E+00  0.00000000E+00  1.86312944E-01
  0.00000000E+00  0.00000000E+00 -1.21124387E+00  0.00000000E+00  0.00000000E+00
  1.37473054E+00  0.00000000E+00  0.00000000E+00 -9.41590077E-01  0.00000000E+00
  0.00000000E+00  5.69796793E-01  0.00000000E+00  0.00000000E+00 -3.51368838E-01
  0.00000000E+00  0.00000000E+00  0.00000000E+00  0.00000000E+00  0.00000000E+00
  0.00000000E+00  0.00000000E+00  0.00000000E+00  0.00000000E+00  0.00000000E+00
  0.00000000E+00  0.00000000E+00  1.86312944E-01  0.00000000E+00  0.00000000E+00
 -1.21124387E+00  0.00000000E+00  0.00000000E+00  1.37473054E+00  0.00000000E+00
  0.00000000E+00 -9.41590077E-01  0.00000000E+00  0.00000000E+00  5.69796793E-01
  0.00000000E+00  0.00000000E+00 -3.51368838E-01  0.00000000E+00  0.00000000E+00
  0.00000000E+00  0.00000000E+00  0.00000000E+00  0.00000000E+00  0.00000000E+00
 -1.53760364E+00  1.87589556E+00 -1.34054492E+00  8.64548701E-01 -3.31400639E-01
  1.90753336E-01 -5.93219981E-02  0.00000000E+00  0.00000000E+00  0.00000000E+00
  0.00000000E+00  0.00000000E+00  0.00000000E+00  0.00000000E+00  0.00000000E+00
  0.00000000E+00  0.00000000E+00  0.00000000E+00  0.00000000E+00  0.00000000E+00
  0.00000000E+00  0.00000000E+00  0.00000000E+00  0.00000000E+00  0.00000000E+00
  1.26931878E-06  0.00000000E+00  0.00000000E+00  2.19852461E-06  0.00000000E+00
Beta MO coefficients                       R   N=         900
  4.11124609E-01  6.54290418E-01  1.48291982E-02 -4.03374146E-03  1.33883490E-03
 -7.57900663E-04  2.34852556E-04  0.00000000E+00  0.00000000E+00  0.00000000E+00
  0.00000000E+00  0.00000000E+00  0.00000000E+00  0.00000000E+00  0.00000000E+00
  0.00000000E+00  0.00000000E+00  0.00000000E+00  0.00000000E+00  0.00000000E+00
  0.00000000E+00  0.00000000E+00  0.00000000E+00  0.00000000E+00  0.00000000E+00
 -4.66264346E-07  0.00000000E+00  0.00000000E+00 -8.07593537E-07  0.00000000E+00
 -1.19781303E-01 -3.21367591E-01  5.21182017E-01  5.93672467E-01  4.48591151E-02
 -1.61746172E-02  4.51846945E-03  0.00000000E+00  0.00000000E+00  0.00000000E+00
  0.00000000E+00  0.00000000E+00  0.00000000E+00  0.00000000E+00  0.00000000E+00
  0.00000000E+00  0.00000000E+00  0.00000000E+00  0.00000000E+00  0.00000000E+00
  0.00000000E+00  0.00000000E+00  0.00000000E+00  0.00000000E+00  0.00000000E+00
 -5.21677119E-04  0.00000000E+00  0.00000000E+00 -9.03571276E-04  0.00000000E+00
  0.00000000E+00  0.00000000E+00  0.00000000E+00  0.00000000E+00  0.00000000E+00
  0.00000000E+00  0.00000000E+00  0.00000000E+00 -1.94718026E-03  0.00000000E+00
  0.00000000E+00  3.77119318E-01  0.00000000E+00  0.00000000E+00  7.09811858E-01
  0.00000000E+00  0.00000000E+00  5.58909565E-02  0.00000000E+00  0.00000000E+00
 -6.95774009E-03  0.00000000E+00  0.00000000E+00  3.73248002E-03  0.00000000E+00
  0.00000000E+00  0.00000000E+00  0.00000000E+00  0.00000000E+00  0.00000000E+00
  0.00000000E+00  0.00000000E+00  0.00000000E+00  0.00000000E+00  0.00000000E+00
  0.00000000E+00  0.00000000E+00  0.00000000E+00  0.00000000E+00 -1.78716908E-03
  0.00000000E+00  0.00000000E+00  3.77574383E-01  0.00000000E+00  0.00000000E+00
  7.10340618E-01  0.00000000E+00  0.00000000E+00  5.39175449E-02  0.00000000E+00
  0.00000000E+00 -6.45498032E-03  0.00000000E+00  0.00000000E+00  3.43066087E-03
  0.00000000E+00  0.00000000E+00  0.00000000E+00  0.00000000E+00  0.00000000E+00
  0.00000000E+00  0.00000000E+00  0.00000000E+00  0.00000000E+00  0.00000000E+00
  0.00000000E+00  0.00000000E+00 -1.78716908E-03  0.00000000E+00  0.00000000E+00
  3.77574383E-01  0.00000000E+00  0.00000000E+00  7.10340618E-01  0.00000000E+00
  0.00000000E+00  5.39175449E-02  0.00000000E+00  0.00000000E+00 -6.45498032E-03
  0.00000000E+00  0.00000000E+00  3.43066087E-03  0.00000000E+00  0.00000000E+00
  0.00000000E+00  0.00000000E+00  0.00000000E+00  0.00000000E+00  0.00000000E+00
  3.97920694E-02  1.14142633E-01 -2.51200955E-01 -4.23068385E-01  8.94667820E-01
  3.43387531E-01 -3.21009435E-02  0.00000000E+00  0.00000000E+00  0.00000000E+00
  0.00000000E+00  0.00000000E+00  0.00000000E+00  0.00000000E+00  0.00000000E+00
  0.00000000E+00  0.00000000E+00  0.00000000E+00  0.00000000E+00  0.00000000E+00
  0.00000000E+00  0.00000000E+00  0.00000000E+00  0.00000000E+00  0.00000000E+00
 -1.99572519E-02  0.00000000E+00  0.00000000E+00 -3.45669742E-02  0.00000000E+00
  0.00000000E+00  0.00000000E+00  0.00000000E+00  0.00000000E+00  0.00000000E+00
  0.00000000E+00  0.00000000E+00  0.00000000E+00 -2.86066976E-02  0.00000000E+00
  0.00000000E+00 -1.22126595E-01  0.00000000E+00  0.00000000E+00 -2.35699468E-01
  0.00000000E+00  0.00000000E+00  3.82548872E-01  0.00000000E+00  0.00000000E+00
  6.74130391E-01  0.00000000E+00  0.00000000E+00  1.18518152E-01  0.00000000E+00
  0.00000000E+00  0.00000000E+00  0.00000000E+00  0.00000000E+00  0.00000000E+00
  0.00000000E+00  0.00000000E+00  0.00000000E+00  0.00000000E+00  0.00000000E+00
  0.00000000E+00  0.00000000E+00  0.00000000E+00  0.00000000E+00 -4.00716888E-02
  0.00000000E+00  0.00000000E+00 -1.20374167E-01  0.00000000E+00  0.00000000E+00
 -2.30038431E-01  0.00000000E+00  0.00000000E+00  3.71279031E-01  0.00000000E+00
  0.00000000E+00  6.65846848E-01  0.00000000E+00  0.00000000E+00  1.52883621E-01
  0.00000000E+00  0.00000000E+00  0.00000000E+00  0.00000000E+00  0.00000000E+00