fubar                                                                   
SP        UPBE1PBE                                                    6-311+G(d,p)        
Number of atoms                            I                1
Info1-9                                    I   N=           9
          11          10           0           0           0         110
           1          18       -1302
Full Title                                 C   N=           1
fubar       
Route                                      C   N=           3
#PBE1PBE/6-311+G(d,p) scf=tight     
Charge                                     I               -2
Multiplicity                               I                4
Number of electrons                        I                7
Number of alpha electrons                  I                5
Number of beta electrons                   I                2
Number of basis functions                  I               22
Number of independent functions            I               22
Number of point charges in /Mol/           I                0
Number of translation vectors              I                0
Atomic numbers                             I   N=           1
           5
Nuclear charges                            R   N=           1
  5.00000000E+00
Current cartesian coordinates              R   N=           3
  0.00000000E+00  0.00000000E+00  0.00000000E+00
Number of symbols in /Mol/                 I                0
Int Atom Types                             I   N=           1
           0
Force Field                                I                0
Atom Types                                 C   N=           1
            
MM charges                                 R   N=           1
  0.00000000E+00
Integer atomic weights                     I   N=           1
          11
Real atomic weights                        R   N=           1
  1.10093053E+01
Atom fragment info                         I   N=           1
           0
Atom residue num                           I   N=           1
           0
Nuclear spins                              I   N=           1
           3
Nuclear ZEff                               R   N=           1
 -2.75000000E+00
Nuclear ZNuc                               R   N=           1
  5.00000000E+00
Nuclear QMom                               R   N=           1
  4.05900000E+00
Nuclear GFac                               R   N=           1
  2.68863700E+00
MicOpt                                     I   N=           1
          -1
Number of residues                         I                0
Number of secondary structures             I                0
SymInf integers                            I   N=          26
           1           8           1           1           1           1
          -1          -1          -1           1          -1          -1
          -1           1          -1          -1          -1          -1
           1           1           1          -1           1           1
           1          -1
RotTr to input orientation                 R   N=          12
  0.00000000E+00  0.00000000E+00 -1.00000000E+00  0.00000000E+00  1.00000000E+00
  0.00000000E+00  1.00000000E+00  0.00000000E+00  0.00000000E+00  0.00000000E+00
  0.00000000E+00  0.00000000E+00
Number of contracted shells                I                6
Number of primitive shells                 I               13
Pure/Cartesian d shells                    I                0
Pure/Cartesian f shells                    I                0
Highest angular momentum                   I                2
Largest degree of contraction              I                6
Shell types                                I   N=           6
           0          -1          -1          -1          -1          -2
Number of primitives per shell             I   N=           6
           6           3           1           1           1           1
Shell to atom map                          I   N=           6
           1           1           1           1           1           1
Primitive exponents                        R   N=          13
  2.85889000E+03  4.28140000E+02  9.75282000E+01  2.79693000E+01  8.21577000E+00
  1.11278000E+00  1.32415000E+01  3.00166000E+00  9.12856000E-01  3.15454000E-01
  9.88563000E-02  3.15000000E-02  4.01000000E-01
Contraction coefficients                   R   N=          13
  2.15374907E-03  1.65822928E-02  8.21869644E-02  2.76617880E-01  6.29315727E-01
  1.73769925E-01  1.17442942E-01  9.18001549E-01 -2.65104870E-03  1.00000000E+00
  1.00000000E+00  1.00000000E+00  1.00000000E+00
P(S=P) Contraction coefficients            R   N=          13
  0.00000000E+00  0.00000000E+00  0.00000000E+00  0.00000000E+00  0.00000000E+00
  0.00000000E+00  4.18099989E-02  2.36574994E-01  8.16213978E-01  1.00000000E+00
  1.00000000E+00  1.00000000E+00  0.00000000E+00
Coordinates of each shell                  R   N=          18
  0.00000000E+00  0.00000000E+00  0.00000000E+00  0.00000000E+00  0.00000000E+00
  0.00000000E+00  0.00000000E+00  0.00000000E+00  0.00000000E+00  0.00000000E+00
  0.00000000E+00  0.00000000E+00  0.00000000E+00  0.00000000E+00  0.00000000E+00
  0.00000000E+00  0.00000000E+00  0.00000000E+00
Num ILSW                                   I              100
ILSW                                       I   N=         100
           1           0           0           0           2           0
           0           0           0           0        1009          -1
           5           0           0           0           0           0
           0           0           0           0           0           0
           1           0           0           0           0           0
           0           0      100000           0          -1           0
           0           0           0           0           0           0
           0           0           0           1           0           0
           0 -2000000000           1           0           0           0
           0           0           4          52           0           0
           0           0          13           0           0           0
           0           0           0           1           0           1
           0           0           0           0           0           0
           0           0           0           0           0           0
           0           0           0           0           0           0
           0           0           0           0           0           0
           0           0           0           0
Num RLSW                                   I               52
RLSW                                       R   N=          52
  7.50000000E-01  7.50000000E-01  1.00000000E+00  1.00000000E+00  2.50000000E-01
  0.00000000E+00  0.00000000E+00  1.00000000E+00  0.00000000E+00  0.00000000E+00
  0.00000000E+00  0.00000000E+00  1.00000000E+00  0.00000000E+00  0.00000000E+00
  0.00000000E+00  0.00000000E+00  1.00000000E+00  0.00000000E+00  0.00000000E+00
  0.00000000E+00  0.00000000E+00  1.00000000E+00  0.00000000E+00  0.00000000E+00
  0.00000000E+00  0.00000000E+00  1.00000000E+00  0.00000000E+00  0.00000000E+00
  0.00000000E+00  0.00000000E+00  1.00000000E+00  0.00000000E+00  0.00000000E+00
  0.00000000E+00  0.00000000E+00  0.00000000E+00  1.00000000E+00  1.00000000E+00
  0.00000000E+00  1.00000000E+00  0.00000000E+00  0.00000000E+00  0.00000000E+00
  0.00000000E+00  0.00000000E+00  0.00000000E+00  0.00000000E+00  0.00000000E+00
  0.00000000E+00  0.00000000E+00
MxBond                                     I                1
NBond                                      I   N=           1
           0
IBond                                      I   N=           1
           0
RBond                                      R   N=           1
  0.00000000E+00
Virial Ratio                               R      1.998036894143961E+00
SCF Energy                                 R     -2.447314197472791E+01
Total Energy                               R     -2.447314197472791E+01
S**2                                       R      3.750080515869501E+00
S**2 after annihilation                    R      3.750000000035058E+00
RMS Density                                R      9.138577458227089E-09
Job Status                                 I                1
Nuclear derivative order                   I                0
External E-field                           R   N=          35
  0.00000000E+00  0.00000000E+00  0.00000000E+00  0.00000000E+00  0.00000000E+00
  0.00000000E+00  0.00000000E+00  0.00000000E+00  0.00000000E+00  0.00000000E+00
  0.00000000E+00  0.00000000E+00  0.00000000E+00  0.00000000E+00  0.00000000E+00
  0.00000000E+00  0.00000000E+00  0.00000000E+00  0.00000000E+00  0.00000000E+00
  0.00000000E+00  0.00000000E+00  0.00000000E+00  0.00000000E+00  0.00000000E+00
  0.00000000E+00  0.00000000E+00  0.00000000E+00  0.00000000E+00  0.00000000E+00
  0.00000000E+00  0.00000000E+00  0.00000000E+00  0.00000000E+00  0.00000000E+00
IOpCl                                      I                1
IROHF                                      I                0
Alpha Orbital Energies                     R   N=          22
 -6.49469040E+00 -2.47125980E-02  1.94342302E-01  1.94342302E-01  1.94342302E-01
  2.71725493E-01  3.12099746E-01  3.12099746E-01  3.12099746E-01  7.22411941E-01
  7.22411941E-01  7.22411941E-01  7.87439650E-01  1.20590955E+00  1.20590955E+00
  1.20590955E+00  1.20590955E+00  1.20590955E+00  2.16358165E+00  2.16358165E+00
  2.16358165E+00  1.42581833E+01
Beta Orbital Energies                      R   N=          22
 -6.48303261E+00  4.72392607E-02  2.77363673E-01  2.77363673E-01  2.77363673E-01
  3.09156789E-01  3.70071176E-01  3.70071176E-01  3.70071176E-01  7.62690861E-01
  7.62690861E-01  7.62690861E-01  8.27584103E-01  1.26363466E+00  1.26363466E+00
  1.26363466E+00  1.26363466E+00  1.26363466E+00  2.19776964E+00  2.19776964E+00
  2.19776964E+00  1.42710061E+01
Alpha MO coefficients                      R   N=         484
  5.77739977E-01  4.55301635E-01  0.00000000E+00  0.00000000E+00  0.00000000E+00
  1.22996076E-02  0.00000000E+00  0.00000000E+00  0.00000000E+00 -7.11713230E-03
  0.00000000E+00  0.00000000E+00  0.00000000E+00  2.60574042E-03  0.00000000E+00
  0.00000000E+00  0.00000000E+00  3.96804365E-16  0.00000000E+00  0.00000000E+00
  2.17726602E-16  0.00000000E+00 -1.21471594E-01 -1.91722589E-01  0.00000000E+00
  0.00000000E+00  0.00000000E+00  5.39554395E-01  0.00000000E+00  0.00000000E+00
  0.00000000E+00  4.73849824E-01  0.00000000E+00  0.00000000E+00  0.00000000E+00
  1.32282608E-01  0.00000000E+00  0.00000000E+00  0.00000000E+00  1.80874831E-16
  0.00000000E+00  0.00000000E+00 -7.06959567E-17  0.00000000E+00  0.00000000E+00
  0.00000000E+00  0.00000000E+00  1.55641126E-01  0.00000000E+00  0.00000000E+00
  0.00000000E+00  2.93736745E-01  0.00000000E+00  0.00000000E+00  0.00000000E+00
  1.19935275E-01  0.00000000E+00  0.00000000E+00  0.00000000E+00  7.21793817E-01
  0.00000000E+00  0.00000000E+00  0.00000000E+00  0.00000000E+00  0.00000000E+00
  0.00000000E+00  0.00000000E+00  0.00000000E+00  1.55641126E-01  0.00000000E+00
  0.00000000E+00  0.00000000E+00  2.93736745E-01  0.00000000E+00  0.00000000E+00
  0.00000000E+00  1.19935275E-01  0.00000000E+00  0.00000000E+00  0.00000000E+00
  7.21793817E-01  0.00000000E+00  0.00000000E+00  0.00000000E+00  0.00000000E+00
  0.00000000E+00  0.00000000E+00  0.00000000E+00  0.00000000E+00  0.00000000E+00
  0.00000000E+00  0.00000000E+00  1.55641126E-01  0.00000000E+00  0.00000000E+00
  0.00000000E+00  2.93736745E-01  0.00000000E+00  0.00000000E+00  0.00000000E+00
  1.19935275E-01  0.00000000E+00  0.00000000E+00  0.00000000E+00  7.21793817E-01
  0.00000000E+00  0.00000000E+00  0.00000000E+00  0.00000000E+00  0.00000000E+00
  4.34574488E-02  5.97988063E-02  0.00000000E+00  0.00000000E+00  0.00000000E+00
 -3.20741322E-02  0.00000000E+00  0.00000000E+00  0.00000000E+00 -1.20573461E+00
  0.00000000E+00  0.00000000E+00  0.00000000E+00  1.62791257E+00  0.00000000E+00
  0.00000000E+00  0.00000000E+00 -2.17560556E-17  0.00000000E+00  0.00000000E+00
  4.27719956E-18  0.00000000E+00  0.00000000E+00  0.00000000E+00 -2.16433244E-01
  0.00000000E+00  0.00000000E+00  0.00000000E+00 -1.98182737E-01  0.00000000E+00
  0.00000000E+00  0.00000000E+00 -8.89887760E-01  0.00000000E+00  0.00000000E+00
  0.00000000E+00  1.09612885E+00  0.00000000E+00  0.00000000E+00  0.00000000E+00
  0.00000000E+00  0.00000000E+00  0.00000000E+00  0.00000000E+00  0.00000000E+00
  0.00000000E+00  0.00000000E+00 -2.16433244E-01  0.00000000E+00  0.00000000E+00
  0.00000000E+00 -1.98182737E-01  0.00000000E+00  0.00000000E+00  0.00000000E+00
 -8.89887760E-01  0.00000000E+00  0.00000000E+00  0.00000000E+00  1.09612885E+00
  0.00000000E+00  0.00000000E+00  0.00000000E+00  0.00000000E+00  0.00000000E+00
  0.00000000E+00  0.00000000E+00  0.00000000E+00  0.00000000E+00  0.00000000E+00
 -2.16433244E-01  0.00000000E+00  0.00000000E+00  0.00000000E+00 -1.98182737E-01
  0.00000000E+00  0.00000000E+00  0.00000000E+00 -8.89887760E-01  0.00000000E+00
  0.00000000E+00  0.00000000E+00  1.09612885E+00  0.00000000E+00  0.00000000E+00
  0.00000000E+00  0.00000000E+00  0.00000000E+00  0.00000000E+00  0.00000000E+00
  0.00000000E+00 -2.48582193E-01  0.00000000E+00  0.00000000E+00  0.00000000E+00
 -1.04322488E+00  0.00000000E+00  0.00000000E+00  0.00000000E+00  1.61192264E+00
  0.00000000E+00  0.00000000E+00  0.00000000E+00 -6.43788515E-01  0.00000000E+00
  0.00000000E+00  0.00000000E+00  0.00000000E+00  0.00000000E+00  0.00000000E+00
  0.00000000E+00  0.00000000E+00 -2.48582193E-01  0.00000000E+00  0.00000000E+00
  0.00000000E+00 -1.04322488E+00  0.00000000E+00  0.00000000E+00  0.00000000E+00
  1.61192264E+00  0.00000000E+00  0.00000000E+00  0.00000000E+00 -6.43788515E-01
  0.00000000E+00  0.00000000E+00  0.00000000E+00  0.00000000E+00  0.00000000E+00
  0.00000000E+00  0.00000000E+00  0.00000000E+00  0.00000000E+00  0.00000000E+00
  0.00000000E+00 -2.48582193E-01  0.00000000E+00  0.00000000E+00  0.00000000E+00
 -1.04322488E+00  0.00000000E+00  0.00000000E+00  0.00000000E+00  1.61192264E+00
  0.00000000E+00  0.00000000E+00  0.00000000E+00 -6.43788515E-01  0.00000000E+00
  0.00000000E+00  0.00000000E+00  0.00000000E+00  0.00000000E+00  1.29496791E-01
  2.69474751E-01  0.00000000E+00  0.00000000E+00  0.00000000E+00 -1.99272834E+00
  0.00000000E+00  0.00000000E+00  0.00000000E+00  2.52883536E+00  0.00000000E+00
  0.00000000E+00  0.00000000E+00 -9.84591163E-01  0.00000000E+00  0.00000000E+00
  0.00000000E+00 -4.59851222E-15  0.00000000E+00  0.00000000E+00  2.45991943E-15
  0.00000000E+00  0.00000000E+00  0.00000000E+00  0.00000000E+00  0.00000000E+00
  0.00000000E+00  0.00000000E+00  0.00000000E+00  0.00000000E+00  0.00000000E+00
  0.00000000E+00  0.00000000E+00  0.00000000E+00  0.00000000E+00  0.00000000E+00
  0.00000000E+00  0.00000000E+00  0.00000000E+00  0.00000000E+00  0.00000000E+00
  0.00000000E+00  0.00000000E+00  1.00000000E+00  0.00000000E+00  0.00000000E+00
  0.00000000E+00  0.00000000E+00  0.00000000E+00  0.00000000E+00  0.00000000E+00
  0.00000000E+00  0.00000000E+00  0.00000000E+00  0.00000000E+00  0.00000000E+00
  0.00000000E+00  0.00000000E+00  0.00000000E+00  0.00000000E+00  0.00000000E+00
  0.00000000E+00  1.00000000E+00  0.00000000E+00  0.00000000E+00  0.00000000E+00
  0.00000000E+00  0.00000000E+00  0.00000000E+00  0.00000000E+00  0.00000000E+00
  0.00000000E+00  0.00000000E+00  0.00000000E+00  0.00000000E+00  0.00000000E+00
  0.00000000E+00  0.00000000E+00  0.00000000E+00  0.00000000E+00  0.00000000E+00
  0.00000000E+00  0.00000000E+00  0.00000000E+00  0.00000000E+00  1.00000000E+00
  0.00000000E+00  0.00000000E+00  7.94353905E-16  1.19329754E-15  0.00000000E+00
  0.00000000E+00  0.00000000E+00 -1.01532824E-14  0.00000000E+00  0.00000000E+00
  0.00000000E+00  1.34543791E-14  0.00000000E+00  0.00000000E+00  0.00000000E+00
 -5.29920857E-15  0.00000000E+00  0.00000000E+00  0.00000000E+00  9.99961981E-01
  0.00000000E+00  0.00000000E+00  8.71988940E-03  0.00000000E+00 -2.93205340E-16
 -6.99459212E-16  0.00000000E+00  0.00000000E+00  0.00000000E+00  5.52644965E-15
  0.00000000E+00  0.00000000E+00  0.00000000E+00 -7.73884593E-15  0.00000000E+00
  0.00000000E+00  0.00000000E+00  3.35077604E-15  0.00000000E+00  0.00000000E+00
  0.00000000E+00 -8.71988940E-03  0.00000000E+00  0.00000000E+00  9.99961981E-01
  0.00000000E+00  0.00000000E+00  0.00000000E+00  0.00000000E+00 -1.37124783E+00
  0.00000000E+00  0.00000000E+00  0.00000000E+00  1.65338136E+00  0.00000000E+00
  0.00000000E+00  0.00000000E+00 -9.10301829E-01  0.00000000E+00  0.00000000E+00
  0.00000000E+00  2.98243871E-01  0.00000000E+00  0.00000000E+00  0.00000000E+00
  0.00000000E+00  0.00000000E+00  0.00000000E+00  0.00000000E+00  0.00000000E+00
 -1.37124783E+00  0.00000000E+00  0.00000000E+00  0.00000000E+00  1.65338136E+00
  0.00000000E+00  0.00000000E+00  0.00000000E+00 -9.10301829E-01  0.00000000E+00
  0.00000000E+00  0.00000000E+00  2.98243871E-01  0.00000000E+00  0.00000000E+00
  0.00000000E+00  0.00000000E+00  0.00000000E+00  0.00000000E+00  0.00000000E+00
  0.00000000E+00  0.00000000E+00  0.00000000E+00  0.00000000E+00 -1.37124783E+00
  0.00000000E+00  0.00000000E+00  0.00000000E+00  1.65338136E+00  0.00000000E+00
  0.00000000E+00  0.00000000E+00 -9.10301829E-01  0.00000000E+00  0.00000000E+00
  0.00000000E+00  2.98243871E-01  0.00000000E+00  0.00000000E+00  0.00000000E+00
  0.00000000E+00  0.00000000E+00 -1.88665102E+00  2.06599589E+00  0.00000000E+00
  0.00000000E+00  0.00000000E+00 -5.37937263E-01  0.00000000E+00  0.00000000E+00
  0.00000000E+00  4.23125187E-01  0.00000000E+00  0.00000000E+00  0.00000000E+00
 -1.51212888E-01  0.00000000E+00  0.00000000E+00  0.00000000E+00  1.26628327E-16
  0.00000000E+00  0.00000000E+00 -4.08212948E-17  0.00000000E+00
Beta MO coefficients                       R   N=         484
  5.78721832E-01  4.54962964E-01  0.00000000E+00  0.00000000E+00  0.00000000E+00
  1.03685201E-02  0.00000000E+00  0.00000000E+00  0.00000000E+00 -6.37722890E-03
  0.00000000E+00  0.00000000E+00  0.00000000E+00  2.24511985E-03  0.00000000E+00
  0.00000000E+00  0.00000000E+00 -5.88097445E-16  0.00000000E+00  0.00000000E+00
  2.62321791E-16  0.00000000E+00 -1.20986422E-01 -1.88094495E-01  0.00000000E+00
  0.00000000E+00  0.00000000E+00  5.29367775E-01  0.00000000E+00  0.00000000E+00
  0.00000000E+00  4.77236565E-01  0.00000000E+00  0.00000000E+00  0.00000000E+00
  1.39640241E-01  0.00000000E+00  0.00000000E+00  0.00000000E+00  5.80403958E-16
  0.00000000E+00  0.00000000E+00  8.01908909E-17  0.00000000E+00  0.00000000E+00
  0.00000000E+00  0.00000000E+00  8.90889081E-02  0.00000000E+00  0.00000000E+00
  0.00000000E+00  2.09377244E-01  0.00000000E+00  0.00000000E+00  0.00000000E+00
 -1.04763688E-01  0.00000000E+00  0.00000000E+00  0.00000000E+00  9.85860400E-01
  0.00000000E+00  0.00000000E+00  0.00000000E+00  0.00000000E+00  0.00000000E+00
  0.00000000E+00  0.00000000E+00  0.00000000E+00  8.90889081E-02  0.00000000E+00
  0.00000000E+00  0.00000000E+00  2.09377244E-01  0.00000000E+00  0.00000000E+00
  0.00000000E+00 -1.04763688E-01  0.00000000E+00  0.00000000E+00  0.00000000E+00
  9.85860400E-01  0.00000000E+00  0.00000000E+00  0.00000000E+00  0.00000000E+00
  0.00000000E+00  0.00000000E+00  0.00000000E+00  0.00000000E+00  0.00000000E+00
  0.00000000E+00  0.00000000E+00  8.90889081E-02  0.00000000E+00  0.00000000E+00
  0.00000000E+00  2.09377244E-01  0.00000000E+00  0.00000000E+00  0.00000000E+00
 -1.04763688E-01  0.00000000E+00  0.00000000E+00  0.00000000E+00  9.85860400E-01
  0.00000000E+00  0.00000000E+00  0.00000000E+00  0.00000000E+00  0.00000000E+00
  4.35521635E-02  5.87102652E-02  0.00000000E+00  0.00000000E+00  0.00000000E+00
 -2.10543385E-02  0.00000000E+00  0.00000000E+00  0.00000000E+00 -1.22824528E+00
  0.00000000E+00  0.00000000E+00  0.00000000E+00  1.63424774E+00  0.00000000E+00
  0.00000000E+00  0.00000000E+00  1.22835083E-16  0.00000000E+00  0.00000000E+00
  2.62734623E-17  0.00000000E+00  0.00000000E+00  0.00000000E+00  2.45828387E-01
  0.00000000E+00  0.00000000E+00  0.00000000E+00  2.32900344E-01  0.00000000E+00
  0.00000000E+00  0.00000000E+00  9.43318545E-01  0.00000000E+00  0.00000000E+00
  0.00000000E+00 -8.76751797E-01  0.00000000E+00  0.00000000E+00  0.00000000E+00
  0.00000000E+00  0.00000000E+00  0.00000000E+00  0.00000000E+00  0.00000000E+00
  0.00000000E+00  0.00000000E+00  2.45828387E-01  0.00000000E+00  0.00000000E+00
  0.00000000E+00  2.32900344E-01  0.00000000E+00  0.00000000E+00  0.00000000E+00
  9.43318545E-01  0.00000000E+00  0.00000000E+00  0.00000000E+00 -8.76751797E-01
  0.00000000E+00  0.00000000E+00  0.00000000E+00  0.00000000E+00  0.00000000E+00
  0.00000000E+00  0.00000000E+00  0.00000000E+00  0.00000000E+00  0.00000000E+00
  2.45828387E-01  0.00000000E+00  0.00000000E+00  0.00000000E+00  2.32900344E-01
  0.00000000E+00  0.00000000E+00  0.00000000E+00  9.43318545E-01  0.00000000E+00
  0.00000000E+00  0.00000000E+00 -8.76751797E-01  0.00000000E+00  0.00000000E+00
  0.00000000E+00  0.00000000E+00  0.00000000E+00  0.00000000E+00  0.00000000E+00
  0.00000000E+00  0.00000000E+00 -2.54840839E-01  0.00000000E+00  0.00000000E+00
  0.00000000E+00 -1.05857965E+00  0.00000000E+00  0.00000000E+00  0.00000000E+00
  1.58557217E+00  0.00000000E+00  0.00000000E+00  0.00000000E+00 -6.30295732E-01
  0.00000000E+00  0.00000000E+00  0.00000000E+00  0.00000000E+00  0.00000000E+00
  0.00000000E+00  0.00000000E+00  0.00000000E+00 -2.54840839E-01  0.00000000E+00
  0.00000000E+00  0.00000000E+00 -1.05857965E+00  0.00000000E+00  0.00000000E+00
  0.00000000E+00  1.58557217E+00  0.00000000E+00  0.00000000E+00  0.00000000E+00
 -6.30295732E-01  0.00000000E+00  0.00000000E+00  0.00000000E+00  0.00000000E+00
  0.00000000E+00  0.00000000E+00  0.00000000E+00  0.00000000E+00 -2.54840839E-01
  0.00000000E+00  0.00000000E+00  0.00000000E+00 -1.05857965E+00  0.00000000E+00
  0.00000000E+00  0.00000000E+00  1.58557217E+00  0.00000000E+00  0.00000000E+00
  0.00000000E+00 -6.30295732E-01  0.00000000E+00  0.00000000E+00  0.00000000E+00
  0.00000000E+00  0.00000000E+00  0.00000000E+00  0.00000000E+00  1.30909915E-01
  2.69493594E-01  0.00000000E+00  0.00000000E+00  0.00000000E+00 -1.99526128E+00
  0.00000000E+00  0.00000000E+00  0.00000000E+00  2.51722024E+00  0.00000000E+00
  0.00000000E+00  0.00000000E+00 -9.72969546E-01  0.00000000E+00  0.00000000E+00
  0.00000000E+00 -4.32392627E-15  0.00000000E+00  0.00000000E+00 -1.50784384E-15
  0.00000000E+00  0.00000000E+00  0.00000000E+00  0.00000000E+00  0.00000000E+00
  0.00000000E+00  0.00000000E+00  0.00000000E+00  0.00000000E+00  0.00000000E+00
  0.00000000E+00  0.00000000E+00  0.00000000E+00  0.00000000E+00  0.00000000E+00
  0.00000000E+00  0.00000000E+00  0.00000000E+00  0.00000000E+00  0.00000000E+00
  0.00000000E+00  0.00000000E+00  1.00000000E+00  0.00000000E+00  0.00000000E+00
  0.00000000E+00  0.00000000E+00  0.00000000E+00  0.00000000E+00  0.00000000E+00
  0.00000000E+00  0.00000000E+00  0.00000000E+00  0.00000000E+00  0.00000000E+00
  0.00000000E+00  0.00000000E+00  0.00000000E+00  0.00000000E+00  0.00000000E+00
  0.00000000E+00  1.00000000E+00  0.00000000E+00  0.00000000E+00  0.00000000E+00
  0.00000000E+00  0.00000000E+00  0.00000000E+00  0.00000000E+00  0.00000000E+00
  0.00000000E+00  0.00000000E+00  0.00000000E+00  0.00000000E+00  0.00000000E+00
  0.00000000E+00  0.00000000E+00  0.00000000E+00  0.00000000E+00  0.00000000E+00
  0.00000000E+00  0.00000000E+00  0.00000000E+00  0.00000000E+00  1.00000000E+00
  0.00000000E+00  0.00000000E+00  7.61450668E-16  1.16896838E-15  0.00000000E+00
  0.00000000E+00  0.00000000E+00 -9.05634749E-15  0.00000000E+00  0.00000000E+00
  0.00000000E+00  1.14061277E-14  0.00000000E+00  0.00000000E+00  0.00000000E+00
 -4.97593385E-15  0.00000000E+00  0.00000000E+00  0.00000000E+00  6.57484866E-01
  0.00000000E+00  0.00000000E+00  7.53467751E-01  0.00000000E+00  2.90721196E-16
  3.60114214E-16  0.00000000E+00  0.00000000E+00  0.00000000E+00 -4.22875117E-15
  0.00000000E+00  0.00000000E+00  0.00000000E+00  6.39479604E-15  0.00000000E+00
  0.00000000E+00  0.00000000E+00 -2.83594018E-15  0.00000000E+00  0.00000000E+00
  0.00000000E+00  7.53467751E-01  0.00000000E+00  0.00000000E+00 -6.57484866E-01
  0.00000000E+00  0.00000000E+00  0.00000000E+00  0.00000000E+00 -1.37108313E+00
  0.00000000E+00  0.00000000E+00  0.00000000E+00  1.65193022E+00  0.00000000E+00
  0.00000000E+00  0.00000000E+00 -9.04634899E-01  0.00000000E+00  0.00000000E+00
  0.00000000E+00  2.96665937E-01  0.00000000E+00  0.00000000E+00  0.00000000E+00
  0.00000000E+00  0.00000000E+00  0.00000000E+00  0.00000000E+00  0.00000000E+00
 -1.37108313E+00  0.00000000E+00  0.00000000E+00  0.00000000E+00  1.65193022E+00
  0.00000000E+00  0.00000000E+00  0.00000000E+00 -9.04634899E-01  0.00000000E+00
  0.00000000E+00  0.00000000E+00  2.96665937E-01  0.00000000E+00  0.00000000E+00
  0.00000000E+00  0.00000000E+00  0.00000000E+00  0.00000000E+00  0.00000000E+00
  0.00000000E+00  0.00000000E+00  0.00000000E+00  0.00000000E+00 -1.37108313E+00
  0.00000000E+00  0.00000000E+00  0.00000000E+00  1.65193022E+00  0.00000000E+00
  0.00000000E+00  0.00000000E+00 -9.04634899E-01  0.00000000E+00  0.00000000E+00
  0.00000000E+00  2.96665937E-01  0.00000000E+00  0.00000000E+00  0.00000000E+00
  0.00000000E+00  0.00000000E+00 -1.88628152E+00  2.06643272E+00  0.00000000E+00
  0.00000000E+00  0.00000000E+00 -5.39252385E-01  0.00000000E+00  0.00000000E+00
  0.00000000E+00  4.23844133E-01  0.00000000E+00  0.00000000E+00  0.00000000E+00
 -1.51492737E-01  0.00000000E+00  0.00000000E+00  0.00000000E+00  1.28909115E-16
  0.00000000E+00  0.00000000E+00 -4.31268857E-17  0.00000000E+00
Orthonormal basis                          R   N=         484
  2.20797284E-01  2.44739916E-01  0.00000000E+00  0.00000000E+00  0.00000000E+00
  3.17216832E-01  0.00000000E+00  0.00000000E+00  0.00000000E+00  3.16446712E-01
  0.00000000E+00  0.00000000E+00  0.00000000E+00  2.52983204E-01  0.00000000E+00
  0.00000000E+00  0.00000000E+00 -2.09373514E-17  0.00000000E+00  0.00000000E+00
  2.09373514E-17  0.00000000E+00  4.61749599E-01  4.38802802E-01  0.00000000E+00
  0.00000000E+00  0.00000000E+00 -8.86709436E-02  0.00000000E+00  0.00000000E+00
  0.00000000E+00 -3.00746831E-01  0.00000000E+00  0.00000000E+00  0.00000000E+00
 -3.40130709E-01  0.00000000E+00  0.00000000E+00  0.00000000E+00  5.43865477E-17
  0.00000000E+00  0.00000000E+00 -5.43865477E-17  0.00000000E+00 -3.92746622E-30
  8.46277571E-30  0.00000000E+00  0.00000000E+00  0.00000000E+00 -2.42746860E-29
  0.00000000E+00  0.00000000E+00  0.00000000E+00  3.75975048E-29  0.00000000E+00
  0.00000000E+00  0.00000000E+00 -2.13795293E-29  0.00000000E+00  0.00000000E+00
  0.00000000E+00  7.07106781E-01  0.00000000E+00  0.00000000E+00  7.07106781E-01
  0.00000000E+00 -4.03063233E-17 -3.32192766E-17  0.00000000E+00  0.00000000E+00
  0.00000000E+00  7.13922023E-17  0.00000000E+00  0.00000000E+00  0.00000000E+00
 -4.29448159E-17  0.00000000E+00  0.00000000E+00  0.00000000E+00  1.49290556E-16
  0.00000000E+00  0.00000000E+00  0.00000000E+00  7.07106781E-01  0.00000000E+00
  0.00000000E+00 -7.07106781E-01  0.00000000E+00 -3.68459642E-01 -8.05597253E-02
  0.00000000E+00  0.00000000E+00  0.00000000E+00  9.76905517E-01  0.00000000E+00
  0.00000000E+00  0.00000000E+00  9.10528333E-02  0.00000000E+00  0.00000000E+00
  0.00000000E+00 -9.39323918E-01  0.00000000E+00  0.00000000E+00  0.00000000E+00
  4.01489061E-17  0.00000000E+00  0.00000000E+00 -4.01489061E-17  0.00000000E+00
 -1.76988531E+00  1.82655534E+00  0.00000000E+00  0.00000000E+00  0.00000000E+00
  8.31502523E-02  0.00000000E+00  0.00000000E+00  0.00000000E+00 -7.05353029E-01
  0.00000000E+00  0.00000000E+00  0.00000000E+00  5.55708261E-01  0.00000000E+00
  0.00000000E+00  0.00000000E+00 -9.02899546E-17  0.00000000E+00  0.00000000E+00
  9.02899546E-17  0.00000000E+00 -6.29625441E-01  9.96668901E-01  0.00000000E+00
  0.00000000E+00  0.00000000E+00 -1.86625141E+00  0.00000000E+00  0.00000000E+00
  0.00000000E+00  2.74882207E+00  0.00000000E+00  0.00000000E+00  0.00000000E+00
 -1.51296378E+00  0.00000000E+00  0.00000000E+00  0.00000000E+00  3.33589587E-16
  0.00000000E+00  0.00000000E+00 -3.33589587E-16  0.00000000E+00  0.00000000E+00
  0.00000000E+00  0.00000000E+00  0.00000000E+00  0.00000000E+00  0.00000000E+00
  0.00000000E+00  0.00000000E+00  0.00000000E+00  0.00000000E+00  0.00000000E+00
  0.00000000E+00  0.00000000E+00  0.00000000E+00  0.00000000E+00  0.00000000E+00
  0.00000000E+00  0.00000000E+00  0.00000000E+00  0.00000000E+00  0.00000000E+00
  1.00000000E+00  0.00000000E+00  0.00000000E+00  0.00000000E+00  0.00000000E+00
  0.00000000E+00  0.00000000E+00  0.00000000E+00  0.00000000E+00  0.00000000E+00
  0.00000000E+00  0.00000000E+00  0.00000000E+00  0.00000000E+00  0.00000000E+00
  0.00000000E+00  0.00000000E+00  0.00000000E+00  0.00000000E+00  1.00000000E+00
  0.00000000E+00  0.00000000E+00  0.00000000E+00  0.00000000E+00  0.00000000E+00
  0.00000000E+00  0.00000000E+00  0.00000000E+00  0.00000000E+00  0.00000000E+00
  0.00000000E+00  0.00000000E+00  0.00000000E+00  0.00000000E+00  0.00000000E+00
  0.00000000E+00  0.00000000E+00  0.00000000E+00  0.00000000E+00  0.00000000E+00
  0.00000000E+00  0.00000000E+00  1.00000000E+00  0.00000000E+00  0.00000000E+00
  0.00000000E+00  0.00000000E+00  0.00000000E+00  0.00000000E+00  2.64713356E-01
  0.00000000E+00  0.00000000E+00  0.00000000E+00  3.73230619E-01  0.00000000E+00
  0.00000000E+00  0.00000000E+00  3.78748627E-01  0.00000000E+00  0.00000000E+00
  0.00000000E+00  2.77688075E-01  0.00000000E+00  0.00000000E+00  0.00000000E+00
  0.00000000E+00  0.00000000E+00  0.00000000E+00  0.00000000E+00  0.00000000E+00
  0.00000000E+00  5.99191960E-01  0.00000000E+00  0.00000000E+00  0.00000000E+00
  3.04989471E-01  0.00000000E+00  0.00000000E+00  0.00000000E+00 -2.96244438E-01