fubar                                                                   
SP        UPBE1PBE                                                    6-311+G(d,p)        
Number of atoms                            I                1
Info1-9                                    I   N=           9
          11          10           0           0           0         110
           1          18       -1302
Full Title                                 C   N=           1
fubar       
Route                                      C   N=           3
#PBE1PBE/6-311+G(d,p) scf=tight     
Charge                                     I               -2
Multiplicity                               I                3
Number of electrons                        I                8
Number of alpha electrons                  I                5
Number of beta electrons                   I                3
Number of basis functions                  I               22
Number of independent functions            I               22
Number of point charges in /Mol/           I                0
Number of translation vectors              I                0
Atomic numbers                             I   N=           1
           6
Nuclear charges                            R   N=           1
  6.00000000E+00
Current cartesian coordinates              R   N=           3
  0.00000000E+00  0.00000000E+00  0.00000000E+00
Number of symbols in /Mol/                 I                0
Int Atom Types                             I   N=           1
           0
Force Field                                I                0
Atom Types                                 C   N=           1
            
MM charges                                 R   N=           1
  0.00000000E+00
Integer atomic weights                     I   N=           1
          12
Real atomic weights                        R   N=           1
  1.20000000E+01
Atom fragment info                         I   N=           1
           0
Atom residue num                           I   N=           1
           0
Nuclear spins                              I   N=           1
           0
Nuclear ZEff                               R   N=           1
 -3.60000000E+00
Nuclear ZNuc                               R   N=           1
  6.00000000E+00
Nuclear QMom                               R   N=           1
  0.00000000E+00
Nuclear GFac                               R   N=           1
  0.00000000E+00
MicOpt                                     I   N=           1
          -1
Number of residues                         I                0
Number of secondary structures             I                0
SymInf integers                            I   N=          26
           1           8           1           1           1           1
          -1          -1          -1           1          -1          -1
          -1           1          -1          -1          -1          -1
           1           1           1          -1           1           1
           1          -1
RotTr to input orientation                 R   N=          12
  0.00000000E+00  0.00000000E+00 -1.00000000E+00  0.00000000E+00  1.00000000E+00
  0.00000000E+00  1.00000000E+00  0.00000000E+00  0.00000000E+00  0.00000000E+00
  0.00000000E+00  0.00000000E+00
Number of contracted shells                I                6
Number of primitive shells                 I               13
Pure/Cartesian d shells                    I                0
Pure/Cartesian f shells                    I                0
Highest angular momentum                   I                2
Largest degree of contraction              I                6
Shell types                                I   N=           6
           0          -1          -1          -1          -1          -2
Number of primitives per shell             I   N=           6
           6           3           1           1           1           1
Shell to atom map                          I   N=           6
           1           1           1           1           1           1
Primitive exponents                        R   N=          13
  4.56324000E+03  6.82024000E+02  1.54973000E+02  4.44553000E+01  1.30290000E+01
  1.82773000E+00  2.09642000E+01  4.80331000E+00  1.45933000E+00  4.83456000E-01
  1.45585000E-01  4.38000000E-02  6.26000000E-01
Contraction coefficients                   R   N=          13
  1.96665025E-03  1.52306019E-02  7.61269097E-02  2.60801033E-01  6.16462078E-01
  2.21006028E-01  1.14660081E-01  9.19999648E-01 -3.03068213E-03  1.00000000E+00
  1.00000000E+00  1.00000000E+00  1.00000000E+00
P(S=P) Contraction coefficients            R   N=          13
  0.00000000E+00  0.00000000E+00  0.00000000E+00  0.00000000E+00  0.00000000E+00
  0.00000000E+00  4.02486927E-02  2.37593957E-01  8.15853851E-01  1.00000000E+00
  1.00000000E+00  1.00000000E+00  0.00000000E+00
Coordinates of each shell                  R   N=          18
  0.00000000E+00  0.00000000E+00  0.00000000E+00  0.00000000E+00  0.00000000E+00
  0.00000000E+00  0.00000000E+00  0.00000000E+00  0.00000000E+00  0.00000000E+00
  0.00000000E+00  0.00000000E+00  0.00000000E+00  0.00000000E+00  0.00000000E+00
  0.00000000E+00  0.00000000E+00  0.00000000E+00
Num ILSW                                   I              100
ILSW                                       I   N=         100
           1           0           0           0           2           0
           0           0           0           0        1009          -1
           5           0           0           0           0           0
           0           0           0           0           0           0
           1           0           0           0           0           0
           0           0      100000           0          -1           0
           0           0           0           0           0           0
           0           0           0           1           0           0
           0 -2000000000           1           0           0           0
           0           1           4          52           0           0
           0           0          13           0           0           0
           0           0           0           1           0           1
           0           0           0           0           0           0
           0           0           0           0           0           0
           0           0           0           0           0           0
           0           0           0           0           0           0
           0           0           0           0
Num RLSW                                   I               52
RLSW                                       R   N=          52
  7.50000000E-01  7.50000000E-01  1.00000000E+00  1.00000000E+00  2.50000000E-01
  0.00000000E+00  0.00000000E+00  1.00000000E+00  0.00000000E+00  0.00000000E+00
  0.00000000E+00  0.00000000E+00  1.00000000E+00  0.00000000E+00  0.00000000E+00
  0.00000000E+00  0.00000000E+00  1.00000000E+00  0.00000000E+00  0.00000000E+00
  0.00000000E+00  0.00000000E+00  1.00000000E+00  0.00000000E+00  0.00000000E+00
  0.00000000E+00  0.00000000E+00  1.00000000E+00  0.00000000E+00  0.00000000E+00
  0.00000000E+00  0.00000000E+00  1.00000000E+00  0.00000000E+00  0.00000000E+00
  0.00000000E+00  0.00000000E+00  0.00000000E+00  1.00000000E+00  1.00000000E+00
  0.00000000E+00  1.00000000E+00  0.00000000E+00  0.00000000E+00  0.00000000E+00
  0.00000000E+00  0.00000000E+00  0.00000000E+00  0.00000000E+00  0.00000000E+00
  0.00000000E+00  0.00000000E+00
MxBond                                     I                1
NBond                                      I   N=           1
           0
IBond                                      I   N=           1
           0
RBond                                      R   N=           1
  0.00000000E+00
Virial Ratio                               R      1.997512550251808E+00
SCF Energy                                 R     -3.762046361798838E+01
Total Energy                               R     -3.762046361798838E+01
S**2                                       R      2.226960716044299E+00
S**2 after annihilation                    R      2.001206297454413E+00
RMS Density                                R      5.073652296069173E-09
Job Status                                 I                1
Nuclear derivative order                   I                0
External E-field                           R   N=          35
  0.00000000E+00  0.00000000E+00  0.00000000E+00  0.00000000E+00  0.00000000E+00
  0.00000000E+00  0.00000000E+00  0.00000000E+00  0.00000000E+00  0.00000000E+00
  0.00000000E+00  0.00000000E+00  0.00000000E+00  0.00000000E+00  0.00000000E+00
  0.00000000E+00  0.00000000E+00  0.00000000E+00  0.00000000E+00  0.00000000E+00
  0.00000000E+00  0.00000000E+00  0.00000000E+00  0.00000000E+00  0.00000000E+00
  0.00000000E+00  0.00000000E+00  0.00000000E+00  0.00000000E+00  0.00000000E+00
  0.00000000E+00  0.00000000E+00  0.00000000E+00  0.00000000E+00  0.00000000E+00
IOpCl                                      I                1
IROHF                                      I                0
Alpha Orbital Energies                     R   N=          22
 -9.84300219E+00 -1.11879501E-01  2.12960220E-01  2.12960220E-01  2.33383568E-01
  3.61827666E-01  3.83485321E-01  3.83485321E-01  3.95357435E-01  9.60994013E-01
  9.60994013E-01  9.79350525E-01  1.07973845E+00  1.76822397E+00  1.76822397E+00
  1.78339906E+00  1.78339906E+00  1.78856828E+00  3.14393681E+00  3.14393681E+00
  3.15957684E+00  2.37568566E+01
Beta Orbital Energies                      R   N=          22
 -9.81407357E+00  1.04137643E-02  2.79071437E-01  3.36021415E-01  3.36021415E-01
  3.73694967E-01  4.40005903E-01  4.60443661E-01  4.60443661E-01  1.02631148E+00
  1.03484582E+00  1.03484582E+00  1.14201311E+00  1.87140882E+00  1.87156488E+00
  1.87156488E+00  1.87923682E+00  1.87923682E+00  3.21316322E+00  3.21897681E+00
  3.21897681E+00  2.37852031E+01
Alpha MO coefficients                      R   N=         484
  5.62668040E-01  4.64803169E-01  0.00000000E+00  0.00000000E+00  0.00000000E+00
  1.27019336E-02  0.00000000E+00  0.00000000E+00  0.00000000E+00 -6.27044689E-03
  0.00000000E+00  0.00000000E+00  0.00000000E+00  2.22252596E-03  0.00000000E+00
  0.00000000E+00  0.00000000E+00 -1.02235959E-04  0.00000000E+00  0.00000000E+00
  4.89777672E-16  0.00000000E+00 -1.25567478E-01 -2.01891312E-01  0.00000000E+00
  0.00000000E+00  0.00000000E+00  5.75214076E-01  0.00000000E+00  0.00000000E+00
  0.00000000E+00  4.91853079E-01  0.00000000E+00  0.00000000E+00  0.00000000E+00
  7.06157212E-02  0.00000000E+00  0.00000000E+00  0.00000000E+00 -8.37223137E-03
  0.00000000E+00  0.00000000E+00 -5.21435532E-17  0.00000000E+00  0.00000000E+00
  0.00000000E+00  0.00000000E+00  2.33720784E-01  0.00000000E+00  0.00000000E+00
  0.00000000E+00  3.77817977E-01  0.00000000E+00  0.00000000E+00  0.00000000E+00
  3.12038871E-01  0.00000000E+00  0.00000000E+00  0.00000000E+00  4.04104769E-01
  0.00000000E+00  0.00000000E+00  0.00000000E+00  0.00000000E+00  0.00000000E+00
  0.00000000E+00  0.00000000E+00  0.00000000E+00  2.33720784E-01  0.00000000E+00
  0.00000000E+00  0.00000000E+00  3.77817977E-01  0.00000000E+00  0.00000000E+00
  0.00000000E+00  3.12038871E-01  0.00000000E+00  0.00000000E+00  0.00000000E+00
  4.04104769E-01  0.00000000E+00  0.00000000E+00  0.00000000E+00  0.00000000E+00
  0.00000000E+00  0.00000000E+00  0.00000000E+00  0.00000000E+00  0.00000000E+00
  0.00000000E+00  0.00000000E+00  2.27498262E-01  0.00000000E+00  0.00000000E+00
  0.00000000E+00  3.71823207E-01  0.00000000E+00  0.00000000E+00  0.00000000E+00
  2.81287374E-01  0.00000000E+00  0.00000000E+00  0.00000000E+00  4.52894888E-01
  0.00000000E+00  0.00000000E+00  0.00000000E+00  0.00000000E+00  0.00000000E+00
  3.85707775E-02  5.61036636E-02  0.00000000E+00  0.00000000E+00  0.00000000E+00
 -5.59515404E-02  0.00000000E+00  0.00000000E+00  0.00000000E+00 -1.04889321E+00
  0.00000000E+00  0.00000000E+00  0.00000000E+00  1.55072719E+00  0.00000000E+00
  0.00000000E+00  0.00000000E+00  2.00971750E-03  0.00000000E+00  0.00000000E+00
  7.39749920E-16  0.00000000E+00  0.00000000E+00  0.00000000E+00 -1.75711587E-01
  0.00000000E+00  0.00000000E+00  0.00000000E+00 -1.57543209E-01  0.00000000E+00
  0.00000000E+00  0.00000000E+00 -7.01996084E-01  0.00000000E+00  0.00000000E+00
  0.00000000E+00  1.19120799E+00  0.00000000E+00  0.00000000E+00  0.00000000E+00
  0.00000000E+00  0.00000000E+00  0.00000000E+00  0.00000000E+00  0.00000000E+00
  0.00000000E+00  0.00000000E+00 -1.75711587E-01  0.00000000E+00  0.00000000E+00
  0.00000000E+00 -1.57543209E-01  0.00000000E+00  0.00000000E+00  0.00000000E+00
 -7.01996084E-01  0.00000000E+00  0.00000000E+00  0.00000000E+00  1.19120799E+00
  0.00000000E+00  0.00000000E+00  0.00000000E+00  0.00000000E+00  0.00000000E+00
  0.00000000E+00  0.00000000E+00  0.00000000E+00  0.00000000E+00  0.00000000E+00
 -1.84847924E-01  0.00000000E+00  0.00000000E+00  0.00000000E+00 -1.66046013E-01
  0.00000000E+00  0.00000000E+00  0.00000000E+00 -7.23399825E-01  0.00000000E+00
  0.00000000E+00  0.00000000E+00  1.17748142E+00  0.00000000E+00  0.00000000E+00
  0.00000000E+00  0.00000000E+00  0.00000000E+00  0.00000000E+00  0.00000000E+00
 -2.55944644E-01  0.00000000E+00  0.00000000E+00  0.00000000E+00 -9.51633567E-01
  0.00000000E+00  0.00000000E+00  0.00000000E+00  1.55790364E+00  0.00000000E+00
  0.00000000E+00  0.00000000E+00 -6.18748355E-01  0.00000000E+00  0.00000000E+00
  0.00000000E+00  0.00000000E+00  0.00000000E+00  0.00000000E+00  0.00000000E+00
  0.00000000E+00  0.00000000E+00  0.00000000E+00 -2.55944644E-01  0.00000000E+00
  0.00000000E+00  0.00000000E+00 -9.51633567E-01  0.00000000E+00  0.00000000E+00
  0.00000000E+00  1.55790364E+00  0.00000000E+00  0.00000000E+00  0.00000000E+00
 -6.18748355E-01  0.00000000E+00  0.00000000E+00  0.00000000E+00  0.00000000E+00
  0.00000000E+00  0.00000000E+00  0.00000000E+00  0.00000000E+00  0.00000000E+00
  0.00000000E+00 -2.57133440E-01  0.00000000E+00  0.00000000E+00  0.00000000E+00
 -9.51340619E-01  0.00000000E+00  0.00000000E+00  0.00000000E+00  1.55406097E+00
  0.00000000E+00  0.00000000E+00  0.00000000E+00 -6.11453456E-01  0.00000000E+00
  0.00000000E+00  0.00000000E+00  0.00000000E+00  0.00000000E+00  1.28165290E-01
  2.62742157E-01  0.00000000E+00  0.00000000E+00  0.00000000E+00 -1.89379023E+00
  0.00000000E+00  0.00000000E+00  0.00000000E+00  2.39621684E+00  0.00000000E+00
  0.00000000E+00  0.00000000E+00 -9.28425356E-01  0.00000000E+00  0.00000000E+00
  0.00000000E+00 -7.64669497E-04  0.00000000E+00  0.00000000E+00 -3.86717017E-15
  0.00000000E+00  0.00000000E+00  0.00000000E+00  0.00000000E+00  0.00000000E+00
  0.00000000E+00  0.00000000E+00  0.00000000E+00  0.00000000E+00  0.00000000E+00
  0.00000000E+00  0.00000000E+00  0.00000000E+00  0.00000000E+00  0.00000000E+00
  0.00000000E+00  0.00000000E+00  0.00000000E+00  0.00000000E+00  0.00000000E+00
  0.00000000E+00  0.00000000E+00  1.00000000E+00  5.49223656E-16  9.74421812E-16
  0.00000000E+00  0.00000000E+00  0.00000000E+00 -7.35149107E-15  0.00000000E+00
  0.00000000E+00  0.00000000E+00  1.12391240E-14  0.00000000E+00  0.00000000E+00
  0.00000000E+00 -5.34033782E-15  0.00000000E+00  0.00000000E+00  0.00000000E+00
  6.21637627E-14  0.00000000E+00  0.00000000E+00  1.00000000E+00  0.00000000E+00
  0.00000000E+00  0.00000000E+00  0.00000000E+00  0.00000000E+00  0.00000000E+00
  0.00000000E+00  0.00000000E+00  0.00000000E+00  0.00000000E+00  0.00000000E+00
  0.00000000E+00  0.00000000E+00  0.00000000E+00  0.00000000E+00  0.00000000E+00
  0.00000000E+00  0.00000000E+00  0.00000000E+00  1.00000000E+00  0.00000000E+00
  0.00000000E+00  0.00000000E+00  0.00000000E+00  0.00000000E+00  0.00000000E+00
  0.00000000E+00  0.00000000E+00  0.00000000E+00  0.00000000E+00  0.00000000E+00
  0.00000000E+00  0.00000000E+00  0.00000000E+00  0.00000000E+00  0.00000000E+00
  0.00000000E+00  0.00000000E+00  0.00000000E+00  0.00000000E+00  0.00000000E+00
  0.00000000E+00  1.00000000E+00  0.00000000E+00  0.00000000E+00 -1.16597478E-03
 -1.34898767E-03  0.00000000E+00  0.00000000E+00  0.00000000E+00  3.44273204E-03
  0.00000000E+00  0.00000000E+00  0.00000000E+00  8.08865343E-03  0.00000000E+00
  0.00000000E+00  0.00000000E+00 -3.24605324E-03  0.00000000E+00  0.00000000E+00
  0.00000000E+00  9.99962631E-01  0.00000000E+00  0.00000000E+00 -6.20551108E-14
  0.00000000E+00  0.00000000E+00  0.00000000E+00 -1.32173895E+00  0.00000000E+00
  0.00000000E+00  0.00000000E+00  1.57102840E+00  0.00000000E+00  0.00000000E+00
  0.00000000E+00 -8.40770080E-01  0.00000000E+00  0.00000000E+00  0.00000000E+00
  2.70256186E-01  0.00000000E+00  0.00000000E+00  0.00000000E+00  0.00000000E+00
  0.00000000E+00  0.00000000E+00  0.00000000E+00  0.00000000E+00  0.00000000E+00
  0.00000000E+00 -1.32173895E+00  0.00000000E+00  0.00000000E+00  0.00000000E+00
  1.57102840E+00  0.00000000E+00  0.00000000E+00  0.00000000E+00 -8.40770080E-01
  0.00000000E+00  0.00000000E+00  0.00000000E+00  2.70256186E-01  0.00000000E+00
  0.00000000E+00  0.00000000E+00  0.00000000E+00  0.00000000E+00  0.00000000E+00
  0.00000000E+00  0.00000000E+00  0.00000000E+00  0.00000000E+00 -1.32134767E+00
  0.00000000E+00  0.00000000E+00  0.00000000E+00  1.57176023E+00  0.00000000E+00
  0.00000000E+00  0.00000000E+00 -8.40588750E-01  0.00000000E+00  0.00000000E+00
  0.00000000E+00  2.69654312E-01  0.00000000E+00  0.00000000E+00  0.00000000E+00
  0.00000000E+00  0.00000000E+00 -2.02434244E+00  2.16095241E+00  0.00000000E+00
  0.00000000E+00  0.00000000E+00 -4.08135532E-01  0.00000000E+00  0.00000000E+00
  0.00000000E+00  3.23529888E-01  0.00000000E+00  0.00000000E+00  0.00000000E+00
 -1.14613652E-01  0.00000000E+00  0.00000000E+00  0.00000000E+00 -9.51735541E-05
  0.00000000E+00  0.00000000E+00  3.09900534E-17  0.00000000E+00
Beta MO coefficients                       R   N=         484
  5.64089284E-01  4.64426430E-01  0.00000000E+00  0.00000000E+00  0.00000000E+00
  9.57975182E-03  0.00000000E+00  0.00000000E+00  0.00000000E+00 -5.00302176E-03
  0.00000000E+00  0.00000000E+00  0.00000000E+00  1.72528045E-03  0.00000000E+00
  0.00000000E+00  0.00000000E+00  1.15718969E-04  0.00000000E+00  0.00000000E+00
  1.01964990E-15  0.00000000E+00 -1.21016012E-01 -1.91726854E-01  0.00000000E+00
  0.00000000E+00  0.00000000E+00  5.36442399E-01  0.00000000E+00  0.00000000E+00
  0.00000000E+00  4.78815815E-01  0.00000000E+00  0.00000000E+00  0.00000000E+00
  1.36651407E-01  0.00000000E+00  0.00000000E+00  0.00000000E+00  4.99224290E-03
  0.00000000E+00  0.00000000E+00 -3.74770759E-17  0.00000000E+00  0.00000000E+00
  0.00000000E+00  0.00000000E+00  0.00000000E+00  1.08503703E-01  0.00000000E+00
  0.00000000E+00  0.00000000E+00  2.30797595E-01  0.00000000E+00  0.00000000E+00
  0.00000000E+00 -6.42119938E-02  0.00000000E+00  0.00000000E+00  0.00000000E+00
  9.43694552E-01  0.00000000E+00  0.00000000E+00  0.00000000E+00  0.00000000E+00
  0.00000000E+00  0.00000000E+00  0.00000000E+00  0.00000000E+00  8.94601711E-02
  0.00000000E+00  0.00000000E+00  0.00000000E+00  2.09918894E-01  0.00000000E+00
  0.00000000E+00  0.00000000E+00 -1.17137492E-01  0.00000000E+00  0.00000000E+00
  0.00000000E+00  9.97450626E-01  0.00000000E+00  0.00000000E+00  0.00000000E+00
  0.00000000E+00  0.00000000E+00  0.00000000E+00  0.00000000E+00  0.00000000E+00
  8.94601711E-02  0.00000000E+00  0.00000000E+00  0.00000000E+00  2.09918894E-01
  0.00000000E+00  0.00000000E+00  0.00000000E+00 -1.17137492E-01  0.00000000E+00
  0.00000000E+00  0.00000000E+00  9.97450626E-01  0.00000000E+00  0.00000000E+00
  0.00000000E+00  0.00000000E+00  0.00000000E+00  0.00000000E+00  0.00000000E+00
  4.15864501E-02  5.83146510E-02  0.00000000E+00  0.00000000E+00  0.00000000E+00
 -3.08267084E-02  0.00000000E+00  0.00000000E+00  0.00000000E+00 -1.14337330E+00
  0.00000000E+00  0.00000000E+00  0.00000000E+00  1.57135366E+00  0.00000000E+00
  0.00000000E+00  0.00000000E+00 -2.36884478E-04  0.00000000E+00  0.00000000E+00
  6.70345259E-16  0.00000000E+00  0.00000000E+00  0.00000000E+00  0.00000000E+00
  0.00000000E+00  2.54277633E-01  0.00000000E+00  0.00000000E+00  0.00000000E+00
  2.62262378E-01  0.00000000E+00  0.00000000E+00  0.00000000E+00  8.64863700E-01
  0.00000000E+00  0.00000000E+00  0.00000000E+00 -8.60940249E-01  0.00000000E+00
  0.00000000E+00  0.00000000E+00  0.00000000E+00  0.00000000E+00  0.00000000E+00
  0.00000000E+00  0.00000000E+00  2.56646869E-01  0.00000000E+00  0.00000000E+00
  0.00000000E+00  2.67092464E-01  0.00000000E+00  0.00000000E+00  0.00000000E+00
  8.75422457E-01  0.00000000E+00  0.00000000E+00  0.00000000E+00 -8.02077541E-01
  0.00000000E+00  0.00000000E+00  0.00000000E+00  0.00000000E+00  0.00000000E+00
  0.00000000E+00  0.00000000E+00  0.00000000E+00  2.56646869E-01  0.00000000E+00
  0.00000000E+00  0.00000000E+00  2.67092464E-01  0.00000000E+00  0.00000000E+00
  0.00000000E+00  8.75422457E-01  0.00000000E+00  0.00000000E+00  0.00000000E+00
 -8.02077541E-01  0.00000000E+00  0.00000000E+00  0.00000000E+00  0.00000000E+00
  0.00000000E+00  0.00000000E+00  0.00000000E+00  0.00000000E+00  0.00000000E+00
  0.00000000E+00  0.00000000E+00 -2.65391871E-01  0.00000000E+00  0.00000000E+00
  0.00000000E+00 -9.85739134E-01  0.00000000E+00  0.00000000E+00  0.00000000E+00
  1.51154474E+00  0.00000000E+00  0.00000000E+00  0.00000000E+00 -5.79675738E-01
  0.00000000E+00  0.00000000E+00  0.00000000E+00  0.00000000E+00  0.00000000E+00
  0.00000000E+00  0.00000000E+00  0.00000000E+00 -2.67263786E-01  0.00000000E+00
  0.00000000E+00  0.00000000E+00 -9.91438090E-01  0.00000000E+00  0.00000000E+00
  0.00000000E+00  1.50278306E+00  0.00000000E+00  0.00000000E+00  0.00000000E+00
 -5.74289170E-01  0.00000000E+00  0.00000000E+00  0.00000000E+00  0.00000000E+00
  0.00000000E+00  0.00000000E+00  0.00000000E+00  0.00000000E+00 -2.67263786E-01
  0.00000000E+00  0.00000000E+00  0.00000000E+00 -9.91438090E-01  0.00000000E+00
  0.00000000E+00  0.00000000E+00  1.50278306E+00  0.00000000E+00  0.00000000E+00
  0.00000000E+00 -5.74289170E-01  0.00000000E+00  0.00000000E+00  0.00000000E+00
  0.00000000E+00  0.00000000E+00  0.00000000E+00  0.00000000E+00  1.31648565E-01
  2.66889828E-01  0.00000000E+00  0.00000000E+00  0.00000000E+00 -1.90550813E+00
  0.00000000E+00  0.00000000E+00  0.00000000E+00  2.35526261E+00  0.00000000E+00
  0.00000000E+00  0.00000000E+00 -8.85373352E-01  0.00000000E+00  0.00000000E+00
  0.00000000E+00 -3.55255204E-03  0.00000000E+00  0.00000000E+00 -3.32121118E-15
  0.00000000E+00  1.14481657E-03  1.72828115E-03  0.00000000E+00  0.00000000E+00
  0.00000000E+00 -9.43010698E-03  0.00000000E+00  0.00000000E+00  0.00000000E+00
  5.68612666E-03  0.00000000E+00  0.00000000E+00  0.00000000E+00 -3.44829551E-03
  0.00000000E+00  0.00000000E+00  0.00000000E+00  9.99981192E-01  0.00000000E+00
  0.00000000E+00  7.68449068E-14  0.00000000E+00  0.00000000E+00  0.00000000E+00
  0.00000000E+00  0.00000000E+00  0.00000000E+00  0.00000000E+00  0.00000000E+00
  0.00000000E+00  0.00000000E+00  0.00000000E+00  0.00000000E+00  0.00000000E+00
  0.00000000E+00  0.00000000E+00  0.00000000E+00  0.00000000E+00  0.00000000E+00
  0.00000000E+00  1.00000000E+00  0.00000000E+00  0.00000000E+00  0.00000000E+00
  0.00000000E+00  0.00000000E+00  0.00000000E+00  0.00000000E+00  0.00000000E+00
  0.00000000E+00  0.00000000E+00  0.00000000E+00  0.00000000E+00  0.00000000E+00
  0.00000000E+00  0.00000000E+00  0.00000000E+00  0.00000000E+00  0.00000000E+00
  0.00000000E+00  0.00000000E+00  0.00000000E+00  0.00000000E+00  1.00000000E+00
  0.00000000E+00  0.00000000E+00  0.00000000E+00  0.00000000E+00  0.00000000E+00
  0.00000000E+00  0.00000000E+00  0.00000000E+00  0.00000000E+00  0.00000000E+00
  0.00000000E+00  0.00000000E+00  0.00000000E+00  0.00000000E+00  0.00000000E+00
  0.00000000E+00  0.00000000E+00  0.00000000E+00  0.00000000E+00  0.00000000E+00
  0.00000000E+00  0.00000000E+00  0.00000000E+00  1.00000000E+00  4.74215752E-16
  8.33812831E-16  0.00000000E+00  0.00000000E+00  0.00000000E+00 -6.29751393E-15
  0.00000000E+00  0.00000000E+00  0.00000000E+00  9.03693244E-15  0.00000000E+00
  0.00000000E+00  0.00000000E+00 -4.16633284E-15  0.00000000E+00  0.00000000E+00
  0.00000000E+00 -7.73699926E-14  0.00000000E+00  0.00000000E+00  1.00000000E+00
  0.00000000E+00  0.00000000E+00  0.00000000E+00  0.00000000E+00  0.00000000E+00
 -1.32330588E+00  0.00000000E+00  0.00000000E+00  0.00000000E+00  1.56447187E+00
  0.00000000E+00  0.00000000E+00  0.00000000E+00 -8.29002372E-01  0.00000000E+00
  0.00000000E+00  0.00000000E+00  2.65261343E-01  0.00000000E+00  0.00000000E+00
  0.00000000E+00  0.00000000E+00  0.00000000E+00  0.00000000E+00  0.00000000E+00
  0.00000000E+00 -1.32389607E+00  0.00000000E+00  0.00000000E+00  0.00000000E+00
  1.56299365E+00  0.00000000E+00  0.00000000E+00  0.00000000E+00 -8.28059321E-01
  0.00000000E+00  0.00000000E+00  0.00000000E+00  2.64803470E-01  0.00000000E+00
  0.00000000E+00  0.00000000E+00  0.00000000E+00  0.00000000E+00  0.00000000E+00
  0.00000000E+00  0.00000000E+00 -1.32389607E+00  0.00000000E+00  0.00000000E+00
  0.00000000E+00  1.56299365E+00  0.00000000E+00  0.00000000E+00  0.00000000E+00
 -8.28059321E-01  0.00000000E+00  0.00000000E+00  0.00000000E+00  2.64803470E-01
  0.00000000E+00  0.00000000E+00  0.00000000E+00  0.00000000E+00  0.00000000E+00
  0.00000000E+00  0.00000000E+00 -2.02394085E+00  2.16139201E+00  0.00000000E+00
  0.00000000E+00  0.00000000E+00 -4.09057930E-01  0.00000000E+00  0.00000000E+00
  0.00000000E+00  3.23792334E-01  0.00000000E+00  0.00000000E+00  0.00000000E+00
 -1.14629967E-01  0.00000000E+00  0.00000000E+00  0.00000000E+00  6.34356363E-05
  0.00000000E+00  0.00000000E+00  3.47033106E-17  0.00000000E+00
Orthonormal basis                          R   N=         484
  2.34500310E-01  2.51032831E-01  0.00000000E+00  0.00000000E+00  0.00000000E+00
  3.16628792E-01  0.00000000E+00  0.00000000E+00  0.00000000E+00  3.12562189E-01
  0.00000000E+00  0.00000000E+00  0.00000000E+00  2.45378104E-01  0.00000000E+00
  0.00000000E+00  0.00000000E+00  8.21350379E-18  0.00000000E+00  0.00000000E+00
  1.64270076E-17  0.00000000E+00  4.47791800E-01  4.32246117E-01  0.00000000E+00
  0.00000000E+00  0.00000000E+00 -9.34438641E-02  0.00000000E+00  0.00000000E+00
  0.00000000E+00 -3.13112702E-01  0.00000000E+00  0.00000000E+00  0.00000000E+00
 -3.50728413E-01  0.00000000E+00  0.00000000E+00  0.00000000E+00 -3.13484455E-17
  0.00000000E+00  0.00000000E+00 -6.26968910E-17  0.00000000E+00  3.94756804E-30
 -8.70637385E-30  0.00000000E+00  0.00000000E+00  0.00000000E+00  2.45218762E-29
  0.00000000E+00  0.00000000E+00  0.00000000E+00 -3.74942061E-29  0.00000000E+00
  0.00000000E+00  0.00000000E+00  2.12552944E-29  0.00000000E+00  0.00000000E+00
  0.00000000E+00  8.94427191E-01  0.00000000E+00  0.00000000E+00 -4.47213595E-01
  0.00000000E+00  7.90935510E-17  6.82727995E-17  0.00000000E+00  0.00000000E+00
  0.00000000E+00 -1.60281548E-16  0.00000000E+00  0.00000000E+00  0.00000000E+00
 -1.18418330E-16  0.00000000E+00  0.00000000E+00  0.00000000E+00  1.26691888E-16
  0.00000000E+00  0.00000000E+00  0.00000000E+00  4.47213595E-01  0.00000000E+00
  0.00000000E+00  8.94427191E-01  0.00000000E+00 -3.25846947E-01 -1.31206246E-01
  0.00000000E+00  0.00000000E+00  0.00000000E+00  9.59027873E-01  0.00000000E+00
  0.00000000E+00  0.00000000E+00  1.08563778E-01  0.00000000E+00  0.00000000E+00
  0.00000000E+00 -9.30158314E-01  0.00000000E+00  0.00000000E+00  0.00000000E+00
  1.37930956E-16  0.00000000E+00  0.00000000E+00  2.75861912E-16  0.00000000E+00
  1.84976794E+00 -1.83528458E+00  0.00000000E+00  0.00000000E+00  0.00000000E+00
 -3.26846453E-01  0.00000000E+00  0.00000000E+00  0.00000000E+00  9.04466787E-01
  0.00000000E+00  0.00000000E+00  0.00000000E+00 -6.20542711E-01  0.00000000E+00
  0.00000000E+00  0.00000000E+00  3.92993035E-17  0.00000000E+00  0.00000000E+00
  7.85986070E-17  0.00000000E+00 -8.15423007E-01  1.16763073E+00  0.00000000E+00
  0.00000000E+00  0.00000000E+00 -1.71803447E+00  0.00000000E+00  0.00000000E+00
  0.00000000E+00  2.48256861E+00  0.00000000E+00  0.00000000E+00  0.00000000E+00
 -1.36065360E+00  0.00000000E+00  0.00000000E+00  0.00000000E+00  8.21131481E-17
  0.00000000E+00  0.00000000E+00  1.64226296E-16  0.00000000E+00  0.00000000E+00
  0.00000000E+00  0.00000000E+00  0.00000000E+00  0.00000000E+00  0.00000000E+00
  0.00000000E+00  0.00000000E+00  0.00000000E+00  0.00000000E+00  0.00000000E+00
  0.00000000E+00  0.00000000E+00  0.00000000E+00  0.00000000E+00  0.00000000E+00
  0.00000000E+00  0.00000000E+00  0.00000000E+00  0.00000000E+00  0.00000000E+00
  1.00000000E+00  0.00000000E+00  0.00000000E+00  0.00000000E+00  0.00000000E+00
  0.00000000E+00  0.00000000E+00  0.00000000E+00  0.00000000E+00  0.00000000E+00
  0.00000000E+00  0.00000000E+00  0.00000000E+00  0.00000000E+00  0.00000000E+00
  0.00000000E+00  0.00000000E+00  0.00000000E+00  0.00000000E+00  1.00000000E+00
  0.00000000E+00  0.00000000E+00  0.00000000E+00  0.00000000E+00  0.00000000E+00
  0.00000000E+00  0.00000000E+00  0.00000000E+00  0.00000000E+00  0.00000000E+00
  0.00000000E+00  0.00000000E+00  0.00000000E+00  0.00000000E+00  0.00000000E+00
  0.00000000E+00  0.00000000E+00  0.00000000E+00  0.00000000E+00  0.00000000E+00
  0.00000000E+00  0.00000000E+00  1.00000000E+00  0.00000000E+00  0.00000000E+00
  0.00000000E+00  0.00000000E+00  0.00000000E+00  0.00000000E+00  2.67356255E-01
  0.00000000E+00  0.00000000E+00  0.00000000E+00  3.79771107E-01  0.00000000E+00
  0.00000000E+00  0.00000000E+00  3.84495861E-01  0.00000000E+00  0.00000000E+00
  0.00000000E+00  2.77500970E-01  0.00000000E+00  0.00000000E+00  0.00000000E+00
  0.00000000E+00  0.00000000E+00  0.00000000E+00  0.00000000E+00  0.00000000E+00
  0.00000000E+00  5.92090527E-01  0.00000000E+00  0.00000000E+00  0.00000000E+00
  3.04840631E-01  0.00000000E+00  0.00000000E+00  0.00000000E+00 -2.96821000E-01