fubar                                                                   
SP        UPBE1PBE                                                    6-311+G(d,p)        
Number of atoms                            I                1
Info1-9                                    I   N=           9
          11          10           0           0           0         110
           1          18       -1302
Full Title                                 C   N=           1
fubar       
Route                                      C   N=           3
#PBE1PBE/6-311+G(d,p) scf=tight     
Charge                                     I                2
Multiplicity                               I                4
Number of electrons                        I               33
Number of alpha electrons                  I               18
Number of beta electrons                   I               15
Number of basis functions                  I               48
Number of independent functions            I               48
Number of point charges in /Mol/           I                0
Number of translation vectors              I                0
Atomic numbers                             I   N=           1
          35
Nuclear charges                            R   N=           1
  3.50000000E+01
Current cartesian coordinates              R   N=           3
  0.00000000E+00  0.00000000E+00  0.00000000E+00
Number of symbols in /Mol/                 I                0
Int Atom Types                             I   N=           1
           0
Force Field                                I                0
Atom Types                                 C   N=           1
            
MM charges                                 R   N=           1
  0.00000000E+00
Integer atomic weights                     I   N=           1
          79
Real atomic weights                        R   N=           1
  7.89183361E+01
Atom fragment info                         I   N=           1
           0
Atom residue num                           I   N=           1
           0
Nuclear spins                              I   N=           1
           3
Nuclear ZEff                               R   N=           1
 -2.45000000E+01
Nuclear ZNuc                               R   N=           1
  3.50000000E+01
Nuclear QMom                               R   N=           1
  3.13000000E+01
Nuclear GFac                               R   N=           1
  2.10639900E+00
MicOpt                                     I   N=           1
          -1
Number of residues                         I                0
Number of secondary structures             I                0
SymInf integers                            I   N=          26
           1           8           1           1           1           1
          -1          -1          -1           1          -1          -1
          -1           1          -1          -1          -1          -1
           1           1           1          -1           1           1
           1          -1
RotTr to input orientation                 R   N=          12
  0.00000000E+00  0.00000000E+00 -1.00000000E+00  0.00000000E+00  1.00000000E+00
  0.00000000E+00  1.00000000E+00  0.00000000E+00  0.00000000E+00  0.00000000E+00
  0.00000000E+00  0.00000000E+00
Number of contracted shells                I               19
Number of primitive shells                 I               35
Pure/Cartesian d shells                    I                0
Pure/Cartesian f shells                    I                0
Highest angular momentum                   I                2
Largest degree of contraction              I                6
Shell types                                I   N=          19
           0           0           0           0           0           0
           0           0          -1           1           1           1
           1           1           1           1          -2          -2
          -2
Number of primitives per shell             I   N=          19
           6           3           1           1           1           1
           1           1           1           3           3           3
           1           1           1           1           4           1
           1
Shell to atom map                          I   N=          19
           1           1           1           1           1           1
           1           1           1           1           1           1
           1           1           1           1           1           1
           1
Primitive exponents                        R   N=          35
  4.39700000E+05  6.60300000E+04  1.51400000E+04  4.31700000E+03  1.41400000E+03
  5.23900000E+02  5.23900000E+02  2.07700000E+02  8.65400000E+01  3.05200000E+01
  1.29800000E+01  4.41200000E+00  1.86200000E+00  3.93200000E-01  1.40000000E-01
  3.50000000E-02  2.95700000E+03  7.00300000E+02  2.24600000E+02  8.25900000E+01
  3.31900000E+01  1.42000000E+01  1.42000000E+01  7.43800000E+00  3.52600000E+00
  1.59500000E+00  8.46200000E-01  3.18600000E-01  1.09600000E-01  1.34800000E+02
  3.63900000E+01  1.21600000E+01  4.34100000E+00  1.53500000E+00  4.51000000E-01
Contraction coefficients                   R   N=          35
  8.12983158E-04  6.28486980E-03  3.19193387E-02  1.28797332E-01  3.94591825E-01
  5.41288786E-01  1.83107648E-01  6.17625795E-01  2.53810600E-01  1.00000000E+00
  1.00000000E+00  1.00000000E+00  1.00000000E+00  1.00000000E+00  1.00000000E+00
  1.00000000E+00  2.22598927E-02  1.80199132E-01  8.62395844E-01  3.43987390E-01
  5.07081411E-01  2.58990506E-01  7.96539352E-02  3.73418448E-01  6.04929885E-01
  1.00000000E+00  1.00000000E+00  1.00000000E+00  1.00000000E+00  1.83093925E-02
  1.34995521E-01  4.26085864E-01  6.04279951E-01  1.00000000E+00  1.00000000E+00
P(S=P) Contraction coefficients            R   N=          35
  0.00000000E+00  0.00000000E+00  0.00000000E+00  0.00000000E+00  0.00000000E+00
  0.00000000E+00  0.00000000E+00  0.00000000E+00  0.00000000E+00  0.00000000E+00
  0.00000000E+00  0.00000000E+00  0.00000000E+00  0.00000000E+00  0.00000000E+00
  1.00000000E+00  0.00000000E+00  0.00000000E+00  0.00000000E+00  0.00000000E+00
  0.00000000E+00  0.00000000E+00  0.00000000E+00  0.00000000E+00  0.00000000E+00
  0.00000000E+00  0.00000000E+00  0.00000000E+00  0.00000000E+00  0.00000000E+00
  0.00000000E+00  0.00000000E+00  0.00000000E+00  0.00000000E+00  0.00000000E+00
Coordinates of each shell                  R   N=          57
  0.00000000E+00  0.00000000E+00  0.00000000E+00  0.00000000E+00  0.00000000E+00
  0.00000000E+00  0.00000000E+00  0.00000000E+00  0.00000000E+00  0.00000000E+00
  0.00000000E+00  0.00000000E+00  0.00000000E+00  0.00000000E+00  0.00000000E+00
  0.00000000E+00  0.00000000E+00  0.00000000E+00  0.00000000E+00  0.00000000E+00
  0.00000000E+00  0.00000000E+00  0.00000000E+00  0.00000000E+00  0.00000000E+00
  0.00000000E+00  0.00000000E+00  0.00000000E+00  0.00000000E+00  0.00000000E+00
  0.00000000E+00  0.00000000E+00  0.00000000E+00  0.00000000E+00  0.00000000E+00
  0.00000000E+00  0.00000000E+00  0.00000000E+00  0.00000000E+00  0.00000000E+00
  0.00000000E+00  0.00000000E+00  0.00000000E+00  0.00000000E+00  0.00000000E+00
  0.00000000E+00  0.00000000E+00  0.00000000E+00  0.00000000E+00  0.00000000E+00
  0.00000000E+00  0.00000000E+00  0.00000000E+00  0.00000000E+00  0.00000000E+00
  0.00000000E+00  0.00000000E+00
Num ILSW                                   I              100
ILSW                                       I   N=         100
           1           0           0           0           2           0
           0           0           0           0        1009          -1
           5           0           0           0           0           0
           0           0           0           0           0           0
           1           0           0           0           0           0
           0           0      100000           0          -1           0
           0           0           0           0           0           0
           0           0           0           1           0           0
           0 -2000000000           1           0           0           0
           0           0           4          52           0           0
           0           0          13           0           0           0
           0           0           0           1           0           1
           0           0           0           0           0           0
           0           0           0           0           0           0
           0           0           0           0           0           0
           0           0           0           0           0           0
           0           0           0           0
Num RLSW                                   I               52
RLSW                                       R   N=          52
  7.50000000E-01  7.50000000E-01  1.00000000E+00  1.00000000E+00  2.50000000E-01
  0.00000000E+00  0.00000000E+00  1.00000000E+00  0.00000000E+00  0.00000000E+00
  0.00000000E+00  0.00000000E+00  1.00000000E+00  0.00000000E+00  0.00000000E+00
  0.00000000E+00  0.00000000E+00  1.00000000E+00  0.00000000E+00  0.00000000E+00
  0.00000000E+00  0.00000000E+00  1.00000000E+00  0.00000000E+00  0.00000000E+00
  0.00000000E+00  0.00000000E+00  1.00000000E+00  0.00000000E+00  0.00000000E+00
  0.00000000E+00  0.00000000E+00  1.00000000E+00  0.00000000E+00  0.00000000E+00
  0.00000000E+00  0.00000000E+00  0.00000000E+00  1.00000000E+00  1.00000000E+00
  0.00000000E+00  1.00000000E+00  0.00000000E+00  0.00000000E+00  0.00000000E+00
  0.00000000E+00  0.00000000E+00  0.00000000E+00  0.00000000E+00  0.00000000E+00
  0.00000000E+00  0.00000000E+00
MxBond                                     I                1
NBond                                      I   N=           1
           0
IBond                                      I   N=           1
           0
RBond                                      R   N=           1
  0.00000000E+00
Virial Ratio                               R      2.001017283252115E+00
SCF Energy                                 R     -2.572554611699131E+03
Total Energy                               R     -2.572554611699131E+03
S**2                                       R      3.750321832300029E+00
S**2 after annihilation                    R      3.750000047892156E+00
RMS Density                                R      2.364097597712596E-09
Job Status                                 I                1
Nuclear derivative order                   I                0
External E-field                           R   N=          35
  0.00000000E+00  0.00000000E+00  0.00000000E+00  0.00000000E+00  0.00000000E+00
  0.00000000E+00  0.00000000E+00  0.00000000E+00  0.00000000E+00  0.00000000E+00
  0.00000000E+00  0.00000000E+00  0.00000000E+00  0.00000000E+00  0.00000000E+00
  0.00000000E+00  0.00000000E+00  0.00000000E+00  0.00000000E+00  0.00000000E+00
  0.00000000E+00  0.00000000E+00  0.00000000E+00  0.00000000E+00  0.00000000E+00
  0.00000000E+00  0.00000000E+00  0.00000000E+00  0.00000000E+00  0.00000000E+00
  0.00000000E+00  0.00000000E+00  0.00000000E+00  0.00000000E+00  0.00000000E+00
IOpCl                                      I                1
IROHF                                      I                0
Alpha Orbital Energies                     R   N=          48
 -4.84176158E+02 -6.35638175E+01 -5.73432196E+01 -5.73432196E+01 -5.73432196E+01
 -9.69539187E+00 -7.50038497E+00 -7.50038497E+00 -7.50038497E+00 -3.58176733E+00
 -3.58176733E+00 -3.58176733E+00 -3.58176733E+00 -3.58176733E+00 -1.65036081E+00
 -1.14164413E+00 -1.14164413E+00 -1.14164413E+00 -4.13601662E-01 -3.12250497E-01
 -3.12250497E-01 -3.12250497E-01 -2.14313072E-01 -2.14313072E-01 -2.14313072E-01
 -2.14313072E-01 -2.14313072E-01 -7.49365728E-02 -7.49365728E-02 -7.49365728E-02
 -5.05168711E-02  1.21860761E+00  1.21860761E+00  1.21860761E+00  3.27882478E+00
  3.27882478E+00  3.27882478E+00  3.27882478E+00  3.27882478E+00  5.54983125E+00
  6.68912437E+00  6.68912437E+00  6.68912437E+00  4.69192473E+01  2.89126028E+02
  2.89126028E+02  2.89126028E+02  1.02005220E+03
Beta Orbital Energies                      R   N=          48
 -4.84165940E+02 -6.35584834E+01 -5.73328479E+01 -5.73328479E+01 -5.73328479E+01
 -9.67967838E+00 -7.48068994E+00 -7.48068994E+00 -7.48068994E+00 -3.56481518E+00
 -3.56481518E+00 -3.56481518E+00 -3.56481518E+00 -3.56481518E+00 -1.47811896E+00
 -9.11182950E-01 -9.11182950E-01 -9.11182950E-01 -3.76011685E-01 -2.79991872E-01
 -2.79991872E-01 -2.79991872E-01 -7.85996442E-02 -7.85996442E-02 -7.85996442E-02
 -7.85996441E-02 -7.85996441E-02 -4.23207393E-02 -4.23207393E-02 -4.23207393E-02
 -7.31072519E-03  1.29448687E+00  1.29448687E+00  1.29448687E+00  3.33092759E+00
  3.33092759E+00  3.33092759E+00  3.33092759E+00  3.33092759E+00  5.59481043E+00
  6.74200405E+00  6.74200405E+00  6.74200405E+00  4.69343378E+01  2.89139293E+02
  2.89139293E+02  2.89139293E+02  1.02006021E+03
Alpha MO coefficients                      R   N=        2304
  3.90061407E-01  6.74226359E-01  8.75041633E-03 -2.18908018E-03  1.05720951E-03
 -5.16037678E-04  1.65630458E-04 -8.74763671E-05  2.18612173E-05  0.00000000E+00
  0.00000000E+00  0.00000000E+00  0.00000000E+00  0.00000000E+00  0.00000000E+00
  0.00000000E+00  0.00000000E+00  0.00000000E+00  0.00000000E+00  0.00000000E+00
  0.00000000E+00  0.00000000E+00  0.00000000E+00  0.00000000E+00  0.00000000E+00
  0.00000000E+00  0.00000000E+00  0.00000000E+00  0.00000000E+00  0.00000000E+00
  0.00000000E+00  0.00000000E+00  0.00000000E+00 -6.48441939E-16  0.00000000E+00
  0.00000000E+00  2.86525053E-16  0.00000000E+00 -5.91530213E-16  0.00000000E+00
  0.00000000E+00  3.55511631E-16  0.00000000E+00 -6.84312327E-16  0.00000000E+00
  0.00000000E+00  3.10428140E-16  0.00000000E+00 -1.28819130E-01 -3.77018009E-01
  6.30273828E-01  4.96866562E-01  4.79509596E-02 -9.59262748E-03  2.61621467E-03
 -1.37482588E-03  3.41338511E-04  0.00000000E+00  0.00000000E+00  0.00000000E+00
  0.00000000E+00  0.00000000E+00  0.00000000E+00  0.00000000E+00  0.00000000E+00
  0.00000000E+00  0.00000000E+00  0.00000000E+00  0.00000000E+00  0.00000000E+00
  0.00000000E+00  0.00000000E+00  0.00000000E+00  0.00000000E+00  0.00000000E+00
  0.00000000E+00  0.00000000E+00  0.00000000E+00  0.00000000E+00  0.00000000E+00
  0.00000000E+00 -4.67036900E-16  0.00000000E+00  0.00000000E+00 -4.36735490E-16
  0.00000000E+00  1.93099070E-15  0.00000000E+00  0.00000000E+00  1.38402971E-16
  0.00000000E+00 -2.95077975E-16  0.00000000E+00  0.00000000E+00 -4.74525493E-16
  0.00000000E+00  0.00000000E+00  0.00000000E+00  0.00000000E+00  0.00000000E+00
  0.00000000E+00  0.00000000E+00  0.00000000E+00  0.00000000E+00  0.00000000E+00
  0.00000000E+00  0.00000000E+00 -3.02410976E-04  0.00000000E+00  0.00000000E+00
  1.26638930E-01  0.00000000E+00  0.00000000E+00  9.23976965E-01  0.00000000E+00
  0.00000000E+00  3.17799195E-02  0.00000000E+00  0.00000000E+00 -1.41103888E-02
  0.00000000E+00  0.00000000E+00  8.54105125E-03  0.00000000E+00  0.00000000E+00
 -2.80914299E-03  0.00000000E+00  0.00000000E+00  1.03254391E-03  0.00000000E+00
  0.00000000E+00  0.00000000E+00  0.00000000E+00  0.00000000E+00  0.00000000E+00
  0.00000000E+00  0.00000000E+00  0.00000000E+00  0.00000000E+00  0.00000000E+00
  0.00000000E+00  0.00000000E+00  0.00000000E+00  0.00000000E+00  0.00000000E+00
  0.00000000E+00  0.00000000E+00  0.00000000E+00  0.00000000E+00  0.00000000E+00
  0.00000000E+00  0.00000000E+00  0.00000000E+00 -3.02410976E-04  0.00000000E+00
  0.00000000E+00  1.26638930E-01  0.00000000E+00  0.00000000E+00  9.23976965E-01
  0.00000000E+00  0.00000000E+00  3.17799195E-02  0.00000000E+00  0.00000000E+00
 -1.41103888E-02  0.00000000E+00  0.00000000E+00  8.54105125E-03  0.00000000E+00
  0.00000000E+00 -2.80914299E-03  0.00000000E+00  0.00000000E+00  1.03254391E-03
  0.00000000E+00  0.00000000E+00  0.00000000E+00  0.00000000E+00  0.00000000E+00
  0.00000000E+00  0.00000000E+00  0.00000000E+00  0.00000000E+00  0.00000000E+00
  0.00000000E+00  0.00000000E+00  0.00000000E+00  0.00000000E+00  0.00000000E+00
  0.00000000E+00  0.00000000E+00  0.00000000E+00  0.00000000E+00  0.00000000E+00
  0.00000000E+00  0.00000000E+00  0.00000000E+00  0.00000000E+00  0.00000000E+00
  0.00000000E+00  0.00000000E+00 -3.02410976E-04  0.00000000E+00  0.00000000E+00
  1.26638930E-01  0.00000000E+00  0.00000000E+00  9.23976965E-01  0.00000000E+00
  0.00000000E+00  3.17799195E-02  0.00000000E+00  0.00000000E+00 -1.41103888E-02
  0.00000000E+00  0.00000000E+00  8.54105125E-03  0.00000000E+00  0.00000000E+00
 -2.80914299E-03  0.00000000E+00  0.00000000E+00  1.03254391E-03  0.00000000E+00
  0.00000000E+00  0.00000000E+00  0.00000000E+00  0.00000000E+00  0.00000000E+00
  0.00000000E+00  0.00000000E+00  0.00000000E+00  0.00000000E+00  0.00000000E+00
  0.00000000E+00  0.00000000E+00  0.00000000E+00  0.00000000E+00  0.00000000E+00
  5.14735989E-02  1.64813737E-01 -4.21488693E-01 -4.57389178E-01  6.65091628E-01
  6.29264449E-01  3.23608819E-02 -1.02814274E-02  2.24420344E-03  0.00000000E+00
  0.00000000E+00  0.00000000E+00  0.00000000E+00  0.00000000E+00  0.00000000E+00
  0.00000000E+00  0.00000000E+00  0.00000000E+00  0.00000000E+00  0.00000000E+00
  0.00000000E+00  0.00000000E+00  0.00000000E+00  0.00000000E+00  0.00000000E+00
  0.00000000E+00  0.00000000E+00  0.00000000E+00  0.00000000E+00  0.00000000E+00
  0.00000000E+00  0.00000000E+00  0.00000000E+00 -1.07915090E-15  0.00000000E+00
  0.00000000E+00 -4.08715974E-17  0.00000000E+00  3.22840197E-15  0.00000000E+00
  0.00000000E+00 -5.35843711E-16  0.00000000E+00 -1.14257113E-15  0.00000000E+00
  0.00000000E+00  2.35444374E-16  0.00000000E+00  0.00000000E+00  0.00000000E+00
  0.00000000E+00  0.00000000E+00  0.00000000E+00  0.00000000E+00  0.00000000E+00
  0.00000000E+00  0.00000000E+00  0.00000000E+00 -3.37455713E-05  0.00000000E+00
  0.00000000E+00 -5.23690938E-02  0.00000000E+00  0.00000000E+00 -4.23813345E-01
  0.00000000E+00  0.00000000E+00  8.80918482E-01  0.00000000E+00  0.00000000E+00
  2.46401571E-01  0.00000000E+00  0.00000000E+00  3.10984675E-02  0.00000000E+00
  0.00000000E+00  1.18413498E-03  0.00000000E+00  0.00000000E+00  3.99487163E-05
  0.00000000E+00  0.00000000E+00  0.00000000E+00  0.00000000E+00  0.00000000E+00
  0.00000000E+00  0.00000000E+00  0.00000000E+00  0.00000000E+00  0.00000000E+00
  0.00000000E+00  0.00000000E+00  0.00000000E+00  0.00000000E+00  0.00000000E+00
  0.00000000E+00  0.00000000E+00  0.00000000E+00  0.00000000E+00  0.00000000E+00
  0.00000000E+00  0.00000000E+00  0.00000000E+00  0.00000000E+00  0.00000000E+00
  0.00000000E+00  0.00000000E+00 -3.37455713E-05  0.00000000E+00  0.00000000E+00
 -5.23690938E-02  0.00000000E+00  0.00000000E+00 -4.23813345E-01  0.00000000E+00
  0.00000000E+00  8.80918482E-01  0.00000000E+00  0.00000000E+00  2.46401571E-01
  0.00000000E+00  0.00000000E+00  3.10984675E-02  0.00000000E+00  0.00000000E+00
  1.18413498E-03  0.00000000E+00  0.00000000E+00  3.99487163E-05  0.00000000E+00
  0.00000000E+00  0.00000000E+00  0.00000000E+00  0.00000000E+00  0.00000000E+00
  0.00000000E+00  0.00000000E+00  0.00000000E+00  0.00000000E+00  0.00000000E+00
  0.00000000E+00  0.00000000E+00  0.00000000E+00  0.00000000E+00  0.00000000E+00
  0.00000000E+00  0.00000000E+00  0.00000000E+00  0.00000000E+00  0.00000000E+00
  0.00000000E+00  0.00000000E+00  0.00000000E+00 -3.37455713E-05  0.00000000E+00
  0.00000000E+00 -5.23690938E-02  0.00000000E+00  0.00000000E+00 -4.23813345E-01
  0.00000000E+00  0.00000000E+00  8.80918482E-01  0.00000000E+00  0.00000000E+00
  2.46401571E-01  0.00000000E+00  0.00000000E+00  3.10984675E-02  0.00000000E+00
  0.00000000E+00  1.18413498E-03  0.00000000E+00  0.00000000E+00  3.99487163E-05
  0.00000000E+00  0.00000000E+00  0.00000000E+00  0.00000000E+00  0.00000000E+00
  0.00000000E+00  0.00000000E+00  0.00000000E+00  0.00000000E+00  0.00000000E+00
  0.00000000E+00  0.00000000E+00  0.00000000E+00  0.00000000E+00  0.00000000E+00
  0.00000000E+00  0.00000000E+00  0.00000000E+00  0.00000000E+00  0.00000000E+00
  0.00000000E+00  0.00000000E+00  0.00000000E+00  0.00000000E+00  0.00000000E+00
  0.00000000E+00  0.00000000E+00  0.00000000E+00  0.00000000E+00  0.00000000E+00
  0.00000000E+00  0.00000000E+00  0.00000000E+00  0.00000000E+00  0.00000000E+00
  0.00000000E+00  0.00000000E+00  0.00000000E+00  0.00000000E+00  0.00000000E+00
  0.00000000E+00  0.00000000E+00  0.00000000E+00  0.00000000E+00  0.00000000E+00
  0.00000000E+00  0.00000000E+00  0.00000000E+00  0.00000000E+00  0.00000000E+00
  0.00000000E+00  8.09008180E-01  0.00000000E+00  0.00000000E+00  0.00000000E+00
  0.00000000E+00  3.02456892E-01  0.00000000E+00  0.00000000E+00  0.00000000E+00
  0.00000000E+00  4.06094796E-02  0.00000000E+00  0.00000000E+00  0.00000000E+00
  0.00000000E+00  0.00000000E+00  0.00000000E+00  0.00000000E+00  0.00000000E+00
  0.00000000E+00  0.00000000E+00  0.00000000E+00  0.00000000E+00  0.00000000E+00
  0.00000000E+00  0.00000000E+00  0.00000000E+00  0.00000000E+00  0.00000000E+00
  0.00000000E+00  0.00000000E+00  0.00000000E+00  0.00000000E+00  0.00000000E+00
  0.00000000E+00  0.00000000E+00  0.00000000E+00  0.00000000E+00  0.00000000E+00
  0.00000000E+00  0.00000000E+00  0.00000000E+00  0.00000000E+00  0.00000000E+00
  0.00000000E+00  0.00000000E+00  0.00000000E+00  0.00000000E+00  0.00000000E+00
  0.00000000E+00  0.00000000E+00  8.09008180E-01  0.00000000E+00  0.00000000E+00
  0.00000000E+00  0.00000000E+00  3.02456892E-01  0.00000000E+00  0.00000000E+00
  0.00000000E+00  0.00000000E+00  4.06094796E-02  0.00000000E+00  0.00000000E+00
  0.00000000E+00  0.00000000E+00  0.00000000E+00  0.00000000E+00  0.00000000E+00
  0.00000000E+00  0.00000000E+00  0.00000000E+00  0.00000000E+00  0.00000000E+00
  0.00000000E+00  0.00000000E+00  0.00000000E+00  0.00000000E+00  0.00000000E+00
  0.00000000E+00  0.00000000E+00  0.00000000E+00  0.00000000E+00  0.00000000E+00
  0.00000000E+00  0.00000000E+00  0.00000000E+00  0.00000000E+00  0.00000000E+00
  0.00000000E+00  0.00000000E+00  0.00000000E+00  0.00000000E+00  0.00000000E+00
  0.00000000E+00  0.00000000E+00  0.00000000E+00  8.09008180E-01  0.00000000E+00
  0.00000000E+00  0.00000000E+00  0.00000000E+00  3.02456892E-01  0.00000000E+00
  0.00000000E+00  0.00000000E+00  0.00000000E+00  4.06094796E-02  0.00000000E+00
  0.00000000E+00 -1.78819518E-17 -3.62036929E-17 -7.46280330E-17  7.93820610E-16
 -1.51787599E-15  5.82406883E-16  2.51734715E-15 -4.23680824E-15  1.87732880E-15
  0.00000000E+00  0.00000000E+00  0.00000000E+00  0.00000000E+00  0.00000000E+00
  0.00000000E+00  0.00000000E+00  0.00000000E+00  0.00000000E+00  0.00000000E+00
  0.00000000E+00  0.00000000E+00  0.00000000E+00  0.00000000E+00  0.00000000E+00
  0.00000000E+00  0.00000000E+00  0.00000000E+00  0.00000000E+00  0.00000000E+00
  0.00000000E+00  0.00000000E+00  0.00000000E+00  0.00000000E+00  3.53859436E-01
  0.00000000E+00  0.00000000E+00  7.27514767E-01  0.00000000E+00  1.32294367E-01
  0.00000000E+00  0.00000000E+00  2.71989654E-01  0.00000000E+00  1.77625491E-02
  0.00000000E+00  0.00000000E+00  3.65187853E-02  0.00000000E+00  2.91660907E-17
  1.07307977E-16 -3.28395818E-16  6.58722030E-17 -3.82177465E-16  2.58203616E-15
 -6.90827425E-15  6.23991396E-15 -3.49942024E-15  0.00000000E+00  0.00000000E+00
  0.00000000E+00  0.00000000E+00  0.00000000E+00  0.00000000E+00  0.00000000E+00
  0.00000000E+00  0.00000000E+00  0.00000000E+00  0.00000000E+00  0.00000000E+00
  0.00000000E+00  0.00000000E+00  0.00000000E+00  0.00000000E+00  0.00000000E+00
  0.00000000E+00  0.00000000E+00  0.00000000E+00  0.00000000E+00  0.00000000E+00
  0.00000000E+00  0.00000000E+00  7.27514767E-01  0.00000000E+00  0.00000000E+00
 -3.53859436E-01  0.00000000E+00  2.71989654E-01  0.00000000E+00  0.00000000E+00
 -1.32294367E-01  0.00000000E+00  3.65187853E-02  0.00000000E+00  0.00000000E+00
 -1.77625491E-02  0.00000000E+00 -1.76108149E-02 -5.70644251E-02  1.54555239E-01
  1.86591426E-01 -3.62481950E-01 -4.96499560E-01  1.00819968E+00  2.54741214E-01
 -1.37374205E-02  0.00000000E+00  0.00000000E+00  0.00000000E+00  0.00000000E+00
  0.00000000E+00  0.00000000E+00  0.00000000E+00  0.00000000E+00  0.00000000E+00
  0.00000000E+00  0.00000000E+00  0.00000000E+00  0.00000000E+00  0.00000000E+00
  0.00000000E+00  0.00000000E+00  0.00000000E+00  0.00000000E+00  0.00000000E+00
  0.00000000E+00  0.00000000E+00  0.00000000E+00  0.00000000E+00  0.00000000E+00
  2.10367116E-15  0.00000000E+00  0.00000000E+00 -1.80613588E-16  0.00000000E+00
 -1.82352048E-15  0.00000000E+00  0.00000000E+00  2.74418066E-16  0.00000000E+00
 -2.06709801E-17  0.00000000E+00  0.00000000E+00  1.96487046E-16  0.00000000E+00
  0.00000000E+00  0.00000000E+00  0.00000000E+00  0.00000000E+00  0.00000000E+00
  0.00000000E+00  0.00000000E+00  0.00000000E+00  0.00000000E+00  0.00000000E+00
 -1.04717042E-02  0.00000000E+00  0.00000000E+00  1.61690386E-02  0.00000000E+00
  0.00000000E+00  1.33466979E-01  0.00000000E+00  0.00000000E+00 -3.48429577E-01
  0.00000000E+00  0.00000000E+00 -1.51295274E-01  0.00000000E+00  0.00000000E+00
  3.37103755E-01  0.00000000E+00  0.00000000E+00  7.24570091E-01  0.00000000E+00
  0.00000000E+00  1.47046669E-01  0.00000000E+00  0.00000000E+00  0.00000000E+00
  0.00000000E+00  0.00000000E+00  0.00000000E+00  0.00000000E+00  0.00000000E+00
  0.00000000E+00  0.00000000E+00  0.00000000E+00  0.00000000E+00  0.00000000E+00
  0.00000000E+00  0.00000000E+00  0.00000000E+00  0.00000000E+00  0.00000000E+00
  0.00000000E+00  0.00000000E+00  0.00000000E+00  0.00000000E+00  0.00000000E+00
  0.00000000E+00  0.00000000E+00  0.00000000E+00  0.00000000E+00 -1.04717042E-02
  0.00000000E+00  0.00000000E+00  1.61690386E-02  0.00000000E+00  0.00000000E+00
  1.33466979E-01  0.00000000E+00  0.00000000E+00 -3.48429577E-01  0.00000000E+00
  0.00000000E+00 -1.51295274E-01  0.00000000E+00  0.00000000E+00  3.37103755E-01
  0.00000000E+00  0.00000000E+00  7.24570091E-01  0.00000000E+00  0.00000000E+00
  1.47046669E-01  0.00000000E+00  0.00000000E+00  0.00000000E+00  0.00000000E+00
  0.00000000E+00  0.00000000E+00  0.00000000E+00  0.00000000E+00  0.00000000E+00
  0.00000000E+00  0.00000000E+00  0.00000000E+00  0.00000000E+00  0.00000000E+00
  0.00000000E+00  0.00000000E+00  0.00000000E+00  0.00000000E+00  0.00000000E+00
  0.00000000E+00  0.00000000E+00  0.00000000E+00  0.00000000E+00  0.00000000E+00
 -1.04717042E-02  0.00000000E+00  0.00000000E+00  1.61690386E-02  0.00000000E+00
  0.00000000E+00  1.33466979E-01  0.00000000E+00  0.00000000E+00 -3.48429577E-01
  0.00000000E+00  0.00000000E+00 -1.51295274E-01  0.00000000E+00  0.00000000E+00
  3.37103755E-01  0.00000000E+00  0.00000000E+00  7.24570091E-01  0.00000000E+00
  0.00000000E+00  1.47046669E-01  0.00000000E+00  0.00000000E+00  0.00000000E+00
  0.00000000E+00  0.00000000E+00  0.00000000E+00  0.00000000E+00  0.00000000E+00
  0.00000000E+00  0.00000000E+00  0.00000000E+00  0.00000000E+00  0.00000000E+00
  0.00000000E+00  0.00000000E+00  0.00000000E+00  0.00000000E+00 -7.41792570E-03
 -2.41846776E-02  6.70895357E-02  7.59228879E-02 -1.46159866E-01 -2.81829423E-01
  9.83706065E-01 -3.59607050E-01 -9.44399957E-01  0.00000000E+00  0.00000000E+00
  0.00000000E+00  0.00000000E+00  0.00000000E+00  0.00000000E+00  0.00000000E+00
  0.00000000E+00  0.00000000E+00  0.00000000E+00  0.00000000E+00  0.00000000E+00
  0.00000000E+00  0.00000000E+00  0.00000000E+00  0.00000000E+00  0.00000000E+00
  0.00000000E+00  0.00000000E+00  0.00000000E+00  0.00000000E+00  0.00000000E+00
  0.00000000E+00  0.00000000E+00 -2.80557820E-15  0.00000000E+00  0.00000000E+00
  2.21303298E-15  0.00000000E+00 -4.89133656E-15  0.00000000E+00  0.00000000E+00
 -6.16044050E-17  0.00000000E+00  2.13997508E-14  0.00000000E+00  0.00000000E+00
 -8.13910094E-15  0.00000000E+00  0.00000000E+00  0.00000000E+00  0.00000000E+00
  0.00000000E+00  0.00000000E+00  0.00000000E+00  0.00000000E+00  0.00000000E+00
  0.00000000E+00  7.24871315E-01  0.00000000E+00  0.00000000E+00 -6.50629564E-03
  0.00000000E+00  0.00000000E+00 -5.40631898E-02  0.00000000E+00  0.00000000E+00
  1.46411577E-01  0.00000000E+00  0.00000000E+00  5.01623256E-02  0.00000000E+00
  0.00000000E+00 -1.37302386E-01  0.00000000E+00  0.00000000E+00 -5.27131712E-01
  0.00000000E+00  0.00000000E+00  5.04875402E-01  0.00000000E+00  0.00000000E+00
  0.00000000E+00  0.00000000E+00  0.00000000E+00  0.00000000E+00  0.00000000E+00
  0.00000000E+00  0.00000000E+00  0.00000000E+00  0.00000000E+00  0.00000000E+00
  0.00000000E+00  0.00000000E+00  0.00000000E+00  0.00000000E+00  0.00000000E+00
  0.00000000E+00  0.00000000E+00  0.00000000E+00  0.00000000E+00  0.00000000E+00
  0.00000000E+00  0.00000000E+00  0.00000000E+00  0.00000000E+00  0.00000000E+00
  0.00000000E+00  7.24871315E-01  0.00000000E+00  0.00000000E+00 -6.50629564E-03
  0.00000000E+00  0.00000000E+00 -5.40631898E-02  0.00000000E+00  0.00000000E+00
  1.46411577E-01  0.00000000E+00  0.00000000E+00  5.01623256E-02  0.00000000E+00
  0.00000000E+00 -1.37302386E-01  0.00000000E+00  0.00000000E+00 -5.27131712E-01
  0.00000000E+00  0.00000000E+00  5.04875402E-01  0.00000000E+00  0.00000000E+00
  0.00000000E+00  0.00000000E+00  0.00000000E+00  0.00000000E+00  0.00000000E+00
  0.00000000E+00  0.00000000E+00  0.00000000E+00  0.00000000E+00  0.00000000E+00
  0.00000000E+00  0.00000000E+00  0.00000000E+00  0.00000000E+00  0.00000000E+00
  0.00000000E+00  0.00000000E+00  0.00000000E+00  0.00000000E+00  0.00000000E+00
  0.00000000E+00  0.00000000E+00  0.00000000E+00  7.24871315E-01  0.00000000E+00
  0.00000000E+00 -6.50629564E-03  0.00000000E+00  0.00000000E+00 -5.40631898E-02
  0.00000000E+00  0.00000000E+00  1.46411577E-01  0.00000000E+00  0.00000000E+00
  5.01623256E-02  0.00000000E+00  0.00000000E+00 -1.37302386E-01  0.00000000E+00
  0.00000000E+00 -5.27131712E-01  0.00000000E+00  0.00000000E+00  5.04875402E-01
  0.00000000E+00  0.00000000E+00  0.00000000E+00  0.00000000E+00  0.00000000E+00