fubar                                                                   
SP        UPBE1PBE                                                    6-311+G(d,p)        
Number of atoms                            I                1
Info1-9                                    I   N=           9
          11          10           0           0           0         110
           1          18       -1302
Full Title                                 C   N=           1
fubar       
Route                                      C   N=           3
#PBE1PBE/6-311+G(d,p) scf=tight     
Charge                                     I                3
Multiplicity                               I                2
Number of electrons                        I               11
Number of alpha electrons                  I                6
Number of beta electrons                   I                5
Number of basis functions                  I               30
Number of independent functions            I               30
Number of point charges in /Mol/           I                0
Number of translation vectors              I                0
Atomic numbers                             I   N=           1
          14
Nuclear charges                            R   N=           1
  1.40000000E+01
Current cartesian coordinates              R   N=           3
  0.00000000E+00  0.00000000E+00  0.00000000E+00
Number of symbols in /Mol/                 I                0
Int Atom Types                             I   N=           1
           0
Force Field                                I                0
Atom Types                                 C   N=           1
            
MM charges                                 R   N=           1
  0.00000000E+00
Integer atomic weights                     I   N=           1
          28
Real atomic weights                        R   N=           1
  2.79769284E+01
Atom fragment info                         I   N=           1
           0
Atom residue num                           I   N=           1
           0
Nuclear spins                              I   N=           1
           0
Nuclear ZEff                               R   N=           1
 -1.22500000E+01
Nuclear ZNuc                               R   N=           1
  1.40000000E+01
Nuclear QMom                               R   N=           1
  0.00000000E+00
Nuclear GFac                               R   N=           1
  0.00000000E+00
MicOpt                                     I   N=           1
          -1
Number of residues                         I                0
Number of secondary structures             I                0
SymInf integers                            I   N=          26
           1           8           1           1           1           1
          -1          -1          -1           1          -1          -1
          -1           1          -1          -1          -1          -1
           1           1           1          -1           1           1
           1          -1
RotTr to input orientation                 R   N=          12
  0.00000000E+00  0.00000000E+00 -1.00000000E+00  0.00000000E+00  1.00000000E+00
  0.00000000E+00  1.00000000E+00  0.00000000E+00  0.00000000E+00  0.00000000E+00
  0.00000000E+00  0.00000000E+00
Number of contracted shells                I               13
Number of primitive shells                 I               24
Pure/Cartesian d shells                    I                0
Pure/Cartesian f shells                    I                0
Highest angular momentum                   I                2
Largest degree of contraction              I                6
Shell types                                I   N=          13
           0           0           0           0           0           0
          -1           1           1           1           1           1
          -2
Number of primitives per shell             I   N=          13
           6           3           1           1           1           1
           1           4           2           1           1           1
           1
Shell to atom map                          I   N=          13
           1           1           1           1           1           1
           1           1           1           1           1           1
           1
Primitive exponents                        R   N=          24
  6.93792300E+04  1.03549400E+04  2.33387960E+03  6.57142950E+02  2.14301130E+02
  7.76291680E+01  7.76291680E+01  3.06308070E+01  1.28012950E+01  3.92686600E+00
  1.45234300E+00  2.56234000E-01  9.42790000E-02  3.31000000E-02  3.35483190E+02
  7.89003660E+01  2.49881500E+01  9.21971100E+00  3.62114000E+00  1.45131000E+00
  5.04977000E-01  1.86317000E-01  6.54320000E-02  4.50000000E-01
Contraction coefficients                   R   N=          24
  7.57000408E-04  5.93200320E-03  3.10880168E-02  1.24967067E-01  3.86897209E-01
  5.54888299E-01  1.77880945E-01  6.27764806E-01  2.47622924E-01  1.00000000E+00
  1.00000000E+00  1.00000000E+00  1.00000000E+00  1.00000000E+00  8.86599815E-03
  6.82989857E-02  2.90957939E-01  7.32116847E-01  6.19879440E-01  4.39148312E-01
  1.00000000E+00  1.00000000E+00  1.00000000E+00  1.00000000E+00
P(S=P) Contraction coefficients            R   N=          24
  0.00000000E+00  0.00000000E+00  0.00000000E+00  0.00000000E+00  0.00000000E+00
  0.00000000E+00  0.00000000E+00  0.00000000E+00  0.00000000E+00  0.00000000E+00
  0.00000000E+00  0.00000000E+00  0.00000000E+00  1.00000000E+00  0.00000000E+00
  0.00000000E+00  0.00000000E+00  0.00000000E+00  0.00000000E+00  0.00000000E+00
  0.00000000E+00  0.00000000E+00  0.00000000E+00  0.00000000E+00
Coordinates of each shell                  R   N=          39
  0.00000000E+00  0.00000000E+00  0.00000000E+00  0.00000000E+00  0.00000000E+00
  0.00000000E+00  0.00000000E+00  0.00000000E+00  0.00000000E+00  0.00000000E+00
  0.00000000E+00  0.00000000E+00  0.00000000E+00  0.00000000E+00  0.00000000E+00
  0.00000000E+00  0.00000000E+00  0.00000000E+00  0.00000000E+00  0.00000000E+00
  0.00000000E+00  0.00000000E+00  0.00000000E+00  0.00000000E+00  0.00000000E+00
  0.00000000E+00  0.00000000E+00  0.00000000E+00  0.00000000E+00  0.00000000E+00
  0.00000000E+00  0.00000000E+00  0.00000000E+00  0.00000000E+00  0.00000000E+00
  0.00000000E+00  0.00000000E+00  0.00000000E+00  0.00000000E+00
Num ILSW                                   I              100
ILSW                                       I   N=         100
           1           0           0           0           2           0
           0           0           0           0        1009          -1
           5           0           0           0           0           0
           0           0           0           0           0           0
           1           0           0           0           0           0
           0           0      100000           0          -1           0
           0           0           0           0           0           0
           0           0           0           1           0           0
           0 -2000000000           1           0           0           0
           0           0           4          52           0           0
           0           0          13           0           0           0
           0           0           0           1           0           1
           0           0           0           0           0           0
           0           0           0           0           0           0
           0           0           0           0           0           0
           0           0           0           0           0           0
           0           0           0           0
Num RLSW                                   I               52
RLSW                                       R   N=          52
  7.50000000E-01  7.50000000E-01  1.00000000E+00  1.00000000E+00  2.50000000E-01
  0.00000000E+00  0.00000000E+00  1.00000000E+00  0.00000000E+00  0.00000000E+00
  0.00000000E+00  0.00000000E+00  1.00000000E+00  0.00000000E+00  0.00000000E+00
  0.00000000E+00  0.00000000E+00  1.00000000E+00  0.00000000E+00  0.00000000E+00
  0.00000000E+00  0.00000000E+00  1.00000000E+00  0.00000000E+00  0.00000000E+00
  0.00000000E+00  0.00000000E+00  1.00000000E+00  0.00000000E+00  0.00000000E+00
  0.00000000E+00  0.00000000E+00  1.00000000E+00  0.00000000E+00  0.00000000E+00
  0.00000000E+00  0.00000000E+00  0.00000000E+00  1.00000000E+00  1.00000000E+00
  0.00000000E+00  1.00000000E+00  0.00000000E+00  0.00000000E+00  0.00000000E+00
  0.00000000E+00  0.00000000E+00  0.00000000E+00  0.00000000E+00  0.00000000E+00
  0.00000000E+00  0.00000000E+00
MxBond                                     I                1
NBond                                      I   N=           1
           0
IBond                                      I   N=           1
           0
RBond                                      R   N=           1
  0.00000000E+00
Virial Ratio                               R      2.001345638585759E+00
SCF Energy                                 R     -2.871233284033018E+02
Total Energy                               R     -2.871233284033018E+02
S**2                                       R      7.500210934615676E-01
S**2 after annihilation                    R      7.500000003376750E-01
RMS Density                                R      1.353857912939304E-09
Job Status                                 I                1
Nuclear derivative order                   I                0
External E-field                           R   N=          35
  0.00000000E+00  0.00000000E+00  0.00000000E+00  0.00000000E+00  0.00000000E+00
  0.00000000E+00  0.00000000E+00  0.00000000E+00  0.00000000E+00  0.00000000E+00
  0.00000000E+00  0.00000000E+00  0.00000000E+00  0.00000000E+00  0.00000000E+00
  0.00000000E+00  0.00000000E+00  0.00000000E+00  0.00000000E+00  0.00000000E+00
  0.00000000E+00  0.00000000E+00  0.00000000E+00  0.00000000E+00  0.00000000E+00
  0.00000000E+00  0.00000000E+00  0.00000000E+00  0.00000000E+00  0.00000000E+00
  0.00000000E+00  0.00000000E+00  0.00000000E+00  0.00000000E+00  0.00000000E+00
IOpCl                                      I                1
IROHF                                      I                0
Alpha Orbital Energies                     R   N=          30
 -6.76856737E+01 -6.71978214E+00 -5.05339757E+00 -5.05339757E+00 -5.05339757E+00
 -1.52634244E+00 -1.11777051E+00 -1.11777051E+00 -1.11777051E+00 -5.82429487E-01
 -5.18543520E-01 -5.18543520E-01 -5.18543520E-01 -5.18543520E-01 -5.18543520E-01
 -4.79455023E-01 -4.79455023E-01 -4.79455023E-01 -2.83121781E-01 -2.58809311E-01
 -2.58809311E-01 -2.58809311E-01  2.68229959E-01  2.68229959E-01  2.68229959E-01
  3.96481104E+00  1.00030092E+01  1.00030092E+01  1.00030092E+01  1.39412291E+02
Beta Orbital Energies                      R   N=          30
 -6.76760961E+01 -6.70181831E+00 -5.04128541E+00 -5.04128541E+00 -5.04128541E+00
 -1.33074785E+00 -1.01268137E+00 -1.01268137E+00 -1.01268137E+00 -5.30392694E-01
 -4.43685511E-01 -4.43685511E-01 -4.43685511E-01 -4.24120548E-01 -4.24120548E-01
 -4.24120548E-01 -4.24120548E-01 -4.24120548E-01 -2.50143695E-01 -2.42100785E-01
 -2.42100785E-01 -2.42100785E-01  3.26519553E-01  3.26519553E-01  3.26519553E-01
  4.00826687E+00  1.00170278E+01  1.00170278E+01  1.00170278E+01  1.39425673E+02
Alpha MO coefficients                      R   N=         900
  4.17861520E-01  6.46677786E-01  1.34254168E-02 -4.25814102E-03  1.67856398E-03
 -1.15883107E-03  3.80526040E-04  0.00000000E+00  0.00000000E+00  0.00000000E+00
  0.00000000E+00  0.00000000E+00  0.00000000E+00  0.00000000E+00  0.00000000E+00
  0.00000000E+00  0.00000000E+00  0.00000000E+00  0.00000000E+00  0.00000000E+00
  0.00000000E+00  0.00000000E+00  0.00000000E+00  0.00000000E+00  0.00000000E+00
 -8.77686899E-18  0.00000000E+00  0.00000000E+00 -2.37383036E-16  0.00000000E+00
 -1.17477451E-01 -3.05832006E-01  5.43686039E-01  5.70695514E-01  4.53935225E-02
 -2.17998858E-02  6.46204682E-03  0.00000000E+00  0.00000000E+00  0.00000000E+00
  0.00000000E+00  0.00000000E+00  0.00000000E+00  0.00000000E+00  0.00000000E+00
  0.00000000E+00  0.00000000E+00  0.00000000E+00  0.00000000E+00  0.00000000E+00
  0.00000000E+00  0.00000000E+00  0.00000000E+00  0.00000000E+00  0.00000000E+00
  1.07842434E-15  0.00000000E+00  0.00000000E+00 -4.67893430E-16  0.00000000E+00
  0.00000000E+00  0.00000000E+00  0.00000000E+00  0.00000000E+00  0.00000000E+00
  0.00000000E+00  0.00000000E+00  0.00000000E+00  0.00000000E+00 -1.82971739E-03
  0.00000000E+00  0.00000000E+00  4.05206763E-01  0.00000000E+00  0.00000000E+00
  6.91862349E-01  0.00000000E+00  0.00000000E+00  5.09474314E-02  0.00000000E+00
  0.00000000E+00 -8.00123593E-03  0.00000000E+00  0.00000000E+00  4.19023912E-03
  0.00000000E+00  0.00000000E+00  0.00000000E+00  0.00000000E+00  0.00000000E+00
  0.00000000E+00  0.00000000E+00  0.00000000E+00  0.00000000E+00  0.00000000E+00
  0.00000000E+00  0.00000000E+00  0.00000000E+00 -1.82971739E-03  0.00000000E+00
  0.00000000E+00  4.05206763E-01  0.00000000E+00  0.00000000E+00  6.91862349E-01
  0.00000000E+00  0.00000000E+00  5.09474314E-02  0.00000000E+00  0.00000000E+00
 -8.00123593E-03  0.00000000E+00  0.00000000E+00  4.19023912E-03  0.00000000E+00
  0.00000000E+00  0.00000000E+00  0.00000000E+00  0.00000000E+00  0.00000000E+00
  0.00000000E+00  0.00000000E+00  0.00000000E+00  0.00000000E+00  0.00000000E+00
  0.00000000E+00  0.00000000E+00 -1.82971739E-03  0.00000000E+00  0.00000000E+00
  4.05206763E-01  0.00000000E+00  0.00000000E+00  6.91862349E-01  0.00000000E+00
  0.00000000E+00  5.09474314E-02  0.00000000E+00  0.00000000E+00 -8.00123593E-03
  0.00000000E+00  0.00000000E+00  4.19023912E-03  0.00000000E+00  0.00000000E+00
  0.00000000E+00  0.00000000E+00  0.00000000E+00  0.00000000E+00  0.00000000E+00
  3.88989161E-02  1.08082765E-01 -2.58350045E-01 -4.06892507E-01  1.07540703E+00
  1.07944701E-01  2.47302453E-03  0.00000000E+00  0.00000000E+00  0.00000000E+00
  0.00000000E+00  0.00000000E+00  0.00000000E+00  0.00000000E+00  0.00000000E+00
  0.00000000E+00  0.00000000E+00  0.00000000E+00  0.00000000E+00  0.00000000E+00
  0.00000000E+00  0.00000000E+00  0.00000000E+00  0.00000000E+00  0.00000000E+00
 -6.89003666E-16  0.00000000E+00  0.00000000E+00 -4.64045154E-16  0.00000000E+00
  0.00000000E+00  0.00000000E+00  0.00000000E+00  0.00000000E+00  0.00000000E+00
  0.00000000E+00  0.00000000E+00  0.00000000E+00  1.17850398E-02  0.00000000E+00
  0.00000000E+00 -1.35142242E-01  0.00000000E+00  0.00000000E+00 -2.41036861E-01
  0.00000000E+00  0.00000000E+00  4.53154927E-01  0.00000000E+00  0.00000000E+00
  6.53390912E-01  0.00000000E+00  0.00000000E+00  8.56366490E-03  0.00000000E+00
  0.00000000E+00  0.00000000E+00  0.00000000E+00  0.00000000E+00  0.00000000E+00
  0.00000000E+00  0.00000000E+00  0.00000000E+00  0.00000000E+00  0.00000000E+00
  0.00000000E+00  0.00000000E+00  0.00000000E+00  0.00000000E+00  1.17850398E-02
  0.00000000E+00  0.00000000E+00 -1.35142242E-01  0.00000000E+00  0.00000000E+00
 -2.41036861E-01  0.00000000E+00  0.00000000E+00  4.53154927E-01  0.00000000E+00
  0.00000000E+00  6.53390912E-01  0.00000000E+00  0.00000000E+00  8.56366490E-03
  0.00000000E+00  0.00000000E+00  0.00000000E+00  0.00000000E+00  0.00000000E+00
  0.00000000E+00  0.00000000E+00  0.00000000E+00  0.00000000E+00  0.00000000E+00
  0.00000000E+00  0.00000000E+00  1.17850398E-02  0.00000000E+00  0.00000000E+00
 -1.35142242E-01  0.00000000E+00  0.00000000E+00 -2.41036861E-01  0.00000000E+00
  0.00000000E+00  4.53154927E-01  0.00000000E+00  0.00000000E+00  6.53390912E-01
  0.00000000E+00  0.00000000E+00  8.56366490E-03  0.00000000E+00  0.00000000E+00
  0.00000000E+00  0.00000000E+00  0.00000000E+00  0.00000000E+00  0.00000000E+00
  2.07964538E-02  5.81000249E-02 -1.42695022E-01 -2.71538790E-01  1.45819671E+00
 -1.09847971E+00 -5.60326143E-01  0.00000000E+00  0.00000000E+00  0.00000000E+00
  0.00000000E+00  0.00000000E+00  0.00000000E+00  0.00000000E+00  0.00000000E+00
  0.00000000E+00  0.00000000E+00  0.00000000E+00  0.00000000E+00  0.00000000E+00
  0.00000000E+00  0.00000000E+00  0.00000000E+00  0.00000000E+00  0.00000000E+00
 -1.38299333E-16  0.00000000E+00  0.00000000E+00  9.08227001E-16  0.00000000E+00
  0.00000000E+00  0.00000000E+00  0.00000000E+00  0.00000000E+00  0.00000000E+00
  0.00000000E+00  0.00000000E+00  0.00000000E+00  0.00000000E+00  0.00000000E+00
  0.00000000E+00  0.00000000E+00  0.00000000E+00  0.00000000E+00  0.00000000E+00
  0.00000000E+00  0.00000000E+00  0.00000000E+00  0.00000000E+00  0.00000000E+00
  0.00000000E+00  0.00000000E+00  0.00000000E+00  0.00000000E+00  0.00000000E+00
  0.00000000E+00  1.00000000E+00  0.00000000E+00  0.00000000E+00  0.00000000E+00
  0.00000000E+00  0.00000000E+00  0.00000000E+00  0.00000000E+00  0.00000000E+00
  0.00000000E+00  0.00000000E+00  0.00000000E+00  0.00000000E+00  0.00000000E+00
  0.00000000E+00  0.00000000E+00  0.00000000E+00  0.00000000E+00  0.00000000E+00
  0.00000000E+00  0.00000000E+00  0.00000000E+00  0.00000000E+00  0.00000000E+00
  0.00000000E+00  0.00000000E+00  0.00000000E+00  0.00000000E+00  0.00000000E+00
  0.00000000E+00  0.00000000E+00  1.00000000E+00  0.00000000E+00  0.00000000E+00
  0.00000000E+00  0.00000000E+00  0.00000000E+00  0.00000000E+00  0.00000000E+00
  0.00000000E+00  0.00000000E+00  0.00000000E+00  0.00000000E+00  0.00000000E+00
  0.00000000E+00  0.00000000E+00  0.00000000E+00  0.00000000E+00  0.00000000E+00
  0.00000000E+00  0.00000000E+00  0.00000000E+00  0.00000000E+00  0.00000000E+00
  0.00000000E+00  0.00000000E+00  0.00000000E+00  0.00000000E+00  0.00000000E+00
  0.00000000E+00  0.00000000E+00  0.00000000E+00  0.00000000E+00  1.00000000E+00
  7.89223864E-17  1.99278197E-16 -3.80879660E-16 -1.13318736E-15  6.11128106E-15
 -9.17978346E-15  5.22362695E-15  0.00000000E+00  0.00000000E+00  0.00000000E+00
  0.00000000E+00  0.00000000E+00  0.00000000E+00  0.00000000E+00  0.00000000E+00
  0.00000000E+00  0.00000000E+00  0.00000000E+00  0.00000000E+00  0.00000000E+00
  0.00000000E+00  0.00000000E+00  0.00000000E+00  0.00000000E+00  0.00000000E+00
  9.98920758E-01  0.00000000E+00  0.00000000E+00  4.64469586E-02  0.00000000E+00
 -1.74201225E-16 -4.73369879E-16  1.00846118E-15  2.98987283E-15 -1.91990929E-14
  3.06645147E-14 -1.68181906E-14  0.00000000E+00  0.00000000E+00  0.00000000E+00
  0.00000000E+00  0.00000000E+00  0.00000000E+00  0.00000000E+00  0.00000000E+00
  0.00000000E+00  0.00000000E+00  0.00000000E+00  0.00000000E+00  0.00000000E+00
  0.00000000E+00  0.00000000E+00  0.00000000E+00  0.00000000E+00  0.00000000E+00
 -4.64469586E-02  0.00000000E+00  0.00000000E+00  9.98920758E-01  0.00000000E+00
  0.00000000E+00  0.00000000E+00  0.00000000E+00  0.00000000E+00  0.00000000E+00
  0.00000000E+00  0.00000000E+00  0.00000000E+00  1.43810032E-01  0.00000000E+00
  0.00000000E+00  7.55373848E-02  0.00000000E+00  0.00000000E+00  1.38835770E-01
  0.00000000E+00  0.00000000E+00 -4.03908452E-01  0.00000000E+00  0.00000000E+00
 -4.11423082E-01  0.00000000E+00  0.00000000E+00  1.07401859E+00  0.00000000E+00
  0.00000000E+00  0.00000000E+00  0.00000000E+00  0.00000000E+00  0.00000000E+00
  0.00000000E+00  0.00000000E+00  0.00000000E+00  0.00000000E+00  0.00000000E+00
  0.00000000E+00  0.00000000E+00  0.00000000E+00  0.00000000E+00  1.43810032E-01
  0.00000000E+00  0.00000000E+00  7.55373848E-02  0.00000000E+00  0.00000000E+00
  1.38835770E-01  0.00000000E+00  0.00000000E+00 -4.03908452E-01  0.00000000E+00
  0.00000000E+00 -4.11423082E-01  0.00000000E+00  0.00000000E+00  1.07401859E+00
  0.00000000E+00  0.00000000E+00  0.00000000E+00  0.00000000E+00  0.00000000E+00
  0.00000000E+00  0.00000000E+00  0.00000000E+00  0.00000000E+00  0.00000000E+00
  0.00000000E+00  0.00000000E+00  1.43810032E-01  0.00000000E+00  0.00000000E+00
  7.55373848E-02  0.00000000E+00  0.00000000E+00  1.38835770E-01  0.00000000E+00
  0.00000000E+00 -4.03908452E-01  0.00000000E+00  0.00000000E+00 -4.11423082E-01
  0.00000000E+00  0.00000000E+00  1.07401859E+00  0.00000000E+00  0.00000000E+00
  0.00000000E+00  0.00000000E+00  0.00000000E+00  0.00000000E+00  0.00000000E+00
 -1.85354073E-02 -5.14871455E-02  1.23908839E-01  2.77626983E-01 -1.99290442E+00
  3.40492489E+00 -2.10594979E+00  0.00000000E+00  0.00000000E+00  0.00000000E+00
  0.00000000E+00  0.00000000E+00  0.00000000E+00  0.00000000E+00  0.00000000E+00
  0.00000000E+00  0.00000000E+00  0.00000000E+00  0.00000000E+00  0.00000000E+00
  0.00000000E+00  0.00000000E+00  0.00000000E+00  0.00000000E+00  0.00000000E+00
  3.06098069E-15  0.00000000E+00  0.00000000E+00 -8.13121134E-15  0.00000000E+00
  0.00000000E+00  0.00000000E+00  0.00000000E+00  0.00000000E+00  0.00000000E+00
  0.00000000E+00  0.00000000E+00  0.00000000E+00 -2.22947923E+00  0.00000000E+00
  0.00000000E+00  5.51212727E-02  0.00000000E+00  0.00000000E+00  1.00387837E-01
  0.00000000E+00  0.00000000E+00 -3.22002562E-01  0.00000000E+00  0.00000000E+00
 -4.03519950E-01  0.00000000E+00  0.00000000E+00  2.36151442E+00  0.00000000E+00
  0.00000000E+00  0.00000000E+00  0.00000000E+00  0.00000000E+00  0.00000000E+00
  0.00000000E+00  0.00000000E+00  0.00000000E+00  0.00000000E+00  0.00000000E+00
  0.00000000E+00  0.00000000E+00  0.00000000E+00  0.00000000E+00 -2.22947923E+00
  0.00000000E+00  0.00000000E+00  5.51212727E-02  0.00000000E+00  0.00000000E+00
  1.00387837E-01  0.00000000E+00  0.00000000E+00 -3.22002562E-01  0.00000000E+00
  0.00000000E+00 -4.03519950E-01  0.00000000E+00  0.00000000E+00  2.36151442E+00
  0.00000000E+00  0.00000000E+00  0.00000000E+00  0.00000000E+00  0.00000000E+00
  0.00000000E+00  0.00000000E+00  0.00000000E+00  0.00000000E+00  0.00000000E+00
  0.00000000E+00  0.00000000E+00 -2.22947923E+00  0.00000000E+00  0.00000000E+00
  5.51212727E-02  0.00000000E+00  0.00000000E+00  1.00387837E-01  0.00000000E+00
  0.00000000E+00 -3.22002562E-01  0.00000000E+00  0.00000000E+00 -4.03519950E-01
  0.00000000E+00  0.00000000E+00  2.36151442E+00  0.00000000E+00  0.00000000E+00
  0.00000000E+00  0.00000000E+00  0.00000000E+00  0.00000000E+00  0.00000000E+00
  0.00000000E+00  0.00000000E+00  0.00000000E+00  0.00000000E+00  0.00000000E+00
  0.00000000E+00  0.00000000E+00  0.00000000E+00  0.00000000E+00  1.26606242E+00
  0.00000000E+00  0.00000000E+00  1.57879449E-01  0.00000000E+00  0.00000000E+00
  3.37186470E-01  0.00000000E+00  0.00000000E+00 -1.88805548E+00  0.00000000E+00
  0.00000000E+00  2.78169500E+00  0.00000000E+00  0.00000000E+00 -2.53861862E+00
  0.00000000E+00  0.00000000E+00  0.00000000E+00  0.00000000E+00  0.00000000E+00
  0.00000000E+00  0.00000000E+00  0.00000000E+00  0.00000000E+00  0.00000000E+00
  0.00000000E+00  0.00000000E+00  1.26606242E+00  0.00000000E+00  0.00000000E+00
  1.57879449E-01  0.00000000E+00  0.00000000E+00  3.37186470E-01  0.00000000E+00
  0.00000000E+00 -1.88805548E+00  0.00000000E+00  0.00000000E+00  2.78169500E+00
  0.00000000E+00  0.00000000E+00 -2.53861862E+00  0.00000000E+00  0.00000000E+00
  0.00000000E+00  0.00000000E+00  0.00000000E+00  0.00000000E+00  0.00000000E+00
  0.00000000E+00  0.00000000E+00  0.00000000E+00  0.00000000E+00  0.00000000E+00
  0.00000000E+00  0.00000000E+00  0.00000000E+00  1.26606242E+00  0.00000000E+00
  0.00000000E+00  1.57879449E-01  0.00000000E+00  0.00000000E+00  3.37186470E-01
  0.00000000E+00  0.00000000E+00 -1.88805548E+00  0.00000000E+00  0.00000000E+00
  2.78169500E+00  0.00000000E+00  0.00000000E+00 -2.53861862E+00  0.00000000E+00
  0.00000000E+00  0.00000000E+00  0.00000000E+00  0.00000000E+00  0.00000000E+00
  1.10674849E-01  4.14183948E-01 -2.34937125E+00  2.69307169E+00 -1.67898223E+00
  1.22456360E+00 -4.07886723E-01  0.00000000E+00  0.00000000E+00  0.00000000E+00
  0.00000000E+00  0.00000000E+00  0.00000000E+00  0.00000000E+00  0.00000000E+00
  0.00000000E+00  0.00000000E+00  0.00000000E+00  0.00000000E+00  0.00000000E+00
  0.00000000E+00  0.00000000E+00  0.00000000E+00  0.00000000E+00  0.00000000E+00
  4.66824991E-16  0.00000000E+00  0.00000000E+00 -2.05585962E-16  0.00000000E+00
  0.00000000E+00  0.00000000E+00  0.00000000E+00  0.00000000E+00  0.00000000E+00
  0.00000000E+00  0.00000000E+00  2.31300306E-01  0.00000000E+00  0.00000000E+00
 -1.18996349E+00  0.00000000E+00  0.00000000E+00  1.37694540E+00  0.00000000E+00
  0.00000000E+00 -1.04260454E+00  0.00000000E+00  0.00000000E+00  7.78080391E-01
  0.00000000E+00  0.00000000E+00 -5.06229639E-01  0.00000000E+00  0.00000000E+00
  0.00000000E+00  0.00000000E+00  0.00000000E+00  0.00000000E+00  0.00000000E+00
  0.00000000E+00  0.00000000E+00  0.00000000E+00  0.00000000E+00  0.00000000E+00
  0.00000000E+00  0.00000000E+00  0.00000000E+00  0.00000000E+00  2.31300306E-01
  0.00000000E+00  0.00000000E+00 -1.18996349E+00  0.00000000E+00  0.00000000E+00
  1.37694540E+00  0.00000000E+00  0.00000000E+00 -1.04260454E+00  0.00000000E+00
  0.00000000E+00  7.78080391E-01  0.00000000E+00  0.00000000E+00 -5.06229639E-01
  0.00000000E+00  0.00000000E+00  0.00000000E+00  0.00000000E+00  0.00000000E+00
  0.00000000E+00  0.00000000E+00  0.00000000E+00  0.00000000E+00  0.00000000E+00
  0.00000000E+00  0.00000000E+00  0.00000000E+00  2.31300306E-01  0.00000000E+00
  0.00000000E+00 -1.18996349E+00  0.00000000E+00  0.00000000E+00  1.37694540E+00
  0.00000000E+00  0.00000000E+00 -1.04260454E+00  0.00000000E+00  0.00000000E+00
  7.78080391E-01  0.00000000E+00  0.00000000E+00 -5.06229639E-01  0.00000000E+00
  0.00000000E+00  0.00000000E+00  0.00000000E+00  0.00000000E+00  0.00000000E+00
 -1.54881701E+00  1.85529919E+00 -1.23463286E+00  7.74158040E-01 -3.31018278E-01
  2.30475312E-01 -7.58544259E-02  0.00000000E+00  0.00000000E+00  0.00000000E+00
  0.00000000E+00  0.00000000E+00  0.00000000E+00  0.00000000E+00  0.00000000E+00
  0.00000000E+00  0.00000000E+00  0.00000000E+00  0.00000000E+00  0.00000000E+00
  0.00000000E+00  0.00000000E+00  0.00000000E+00  0.00000000E+00  0.00000000E+00
 -1.47749549E-17  0.00000000E+00  0.00000000E+00  1.59661835E-17  0.00000000E+00
Beta MO coefficients                       R   N=         900
  4.17779564E-01  6.46746641E-01  1.34464133E-02 -4.26862938E-03  1.68240185E-03
 -1.16187637E-03  3.81624737E-04  0.00000000E+00  0.00000000E+00  0.00000000E+00
  0.00000000E+00  0.00000000E+00  0.00000000E+00  0.00000000E+00  0.00000000E+00
  0.00000000E+00  0.00000000E+00  0.00000000E+00  0.00000000E+00  0.00000000E+00
  0.00000000E+00  0.00000000E+00  0.00000000E+00  0.00000000E+00  0.00000000E+00
  8.07398357E-17  0.00000000E+00  0.00000000E+00  1.07697256E-16  0.00000000E+00
 -1.17374582E-01 -3.05634264E-01  5.42075233E-01  5.72776257E-01  4.38907326E-02
 -2.10773715E-02  6.25174274E-03  0.00000000E+00  0.00000000E+00  0.00000000E+00
  0.00000000E+00  0.00000000E+00  0.00000000E+00  0.00000000E+00  0.00000000E+00
  0.00000000E+00  0.00000000E+00  0.00000000E+00  0.00000000E+00  0.00000000E+00
  0.00000000E+00  0.00000000E+00  0.00000000E+00  0.00000000E+00  0.00000000E+00
  8.52711219E-17  0.00000000E+00  0.00000000E+00  1.37978637E-16  0.00000000E+00
  0.00000000E+00  0.00000000E+00  0.00000000E+00  0.00000000E+00  0.00000000E+00
  0.00000000E+00  0.00000000E+00  0.00000000E+00  0.00000000E+00 -1.76489774E-03
  0.00000000E+00  0.00000000E+00  4.05466161E-01  0.00000000E+00  0.00000000E+00
  6.93105641E-01  0.00000000E+00  0.00000000E+00  4.78676496E-02  0.00000000E+00
  0.00000000E+00 -7.85423555E-03  0.00000000E+00  0.00000000E+00  4.04557854E-03
  0.00000000E+00  0.00000000E+00  0.00000000E+00  0.00000000E+00  0.00000000E+00
  0.00000000E+00  0.00000000E+00  0.00000000E+00  0.00000000E+00  0.00000000E+00
  0.00000000E+00  0.00000000E+00 -1.76489774E-03  0.00000000E+00  0.00000000E+00
  4.05466161E-01  0.00000000E+00  0.00000000E+00  6.93105641E-01  0.00000000E+00
  0.00000000E+00  4.78676496E-02  0.00000000E+00  0.00000000E+00 -7.85423555E-03
  0.00000000E+00  0.00000000E+00  4.04557854E-03  0.00000000E+00  0.00000000E+00
  0.00000000E+00  0.00000000E+00  0.00000000E+00  0.00000000E+00  0.00000000E+00
  0.00000000E+00  0.00000000E+00  0.00000000E+00  0.00000000E+00  0.00000000E+00
  0.00000000E+00  0.00000000E+00  0.00000000E+00 -1.76489774E-03  0.00000000E+00
  0.00000000E+00  4.05466161E-01  0.00000000E+00  0.00000000E+00  6.93105641E-01
  0.00000000E+00  0.00000000E+00  4.78676496E-02  0.00000000E+00  0.00000000E+00
 -7.85423555E-03  0.00000000E+00  0.00000000E+00  4.04557854E-03  0.00000000E+00
  0.00000000E+00  0.00000000E+00  0.00000000E+00  0.00000000E+00  0.00000000E+00
  3.89906367E-02  1.08717445E-01 -2.62893116E-01 -3.99538259E-01  1.06742219E+00
  1.08335071E-01  1.14618261E-02  0.00000000E+00  0.00000000E+00  0.00000000E+00
  0.00000000E+00  0.00000000E+00  0.00000000E+00  0.00000000E+00  0.00000000E+00
  0.00000000E+00  0.00000000E+00  0.00000000E+00  0.00000000E+00  0.00000000E+00
  0.00000000E+00  0.00000000E+00  0.00000000E+00  0.00000000E+00  0.00000000E+00
  5.25906178E-16  0.00000000E+00  0.00000000E+00  9.86225620E-16  0.00000000E+00
  0.00000000E+00  0.00000000E+00  0.00000000E+00  0.00000000E+00  0.00000000E+00
  0.00000000E+00  0.00000000E+00  0.00000000E+00  6.52300254E-04  0.00000000E+00
  0.00000000E+00 -1.37620701E-01  0.00000000E+00  0.00000000E+00 -2.43118509E-01
  0.00000000E+00  0.00000000E+00  4.81791820E-01  0.00000000E+00  0.00000000E+00
  6.07930226E-01  0.00000000E+00  0.00000000E+00  4.66607064E-02  0.00000000E+00
  0.00000000E+00  0.00000000E+00  0.00000000E+00  0.00000000E+00  0.00000000E+00
  0.00000000E+00  0.00000000E+00  0.00000000E+00  0.00000000E+00  0.00000000E+00
  0.00000000E+00  0.00000000E+00  6.52300254E-04  0.00000000E+00  0.00000000E+00
 -1.37620701E-01  0.00000000E+00  0.00000000E+00 -2.43118509E-01  0.00000000E+00
  0.00000000E+00  4.81791820E-01  0.00000000E+00  0.00000000E+00  6.07930226E-01
  0.00000000E+00  0.00000000E+00  4.66607064E-02  0.00000000E+00  0.00000000E+00
  0.00000000E+00  0.00000000E+00  0.00000000E+00  0.00000000E+00  0.00000000E+00