fubar                                                                   
SP        UPBE1PBE                                                    6-311+G(d,p)        
Number of atoms                            I                1
Info1-9                                    I   N=           9
          11          10           0           0           0         110
           1          18       -1302
Full Title                                 C   N=           1
fubar       
Route                                      C   N=           3
#PBE1PBE/6-311+G(d,p) scf=tight     
Charge                                     I               -1
Multiplicity                               I                4
Number of electrons                        I               15
Number of alpha electrons                  I                9
Number of beta electrons                   I                6
Number of basis functions                  I               30
Number of independent functions            I               30
Number of point charges in /Mol/           I                0
Number of translation vectors              I                0
Atomic numbers                             I   N=           1
          14
Nuclear charges                            R   N=           1
  1.40000000E+01
Current cartesian coordinates              R   N=           3
  0.00000000E+00  0.00000000E+00  0.00000000E+00
Number of symbols in /Mol/                 I                0
Int Atom Types                             I   N=           1
           0
Force Field                                I                0
Atom Types                                 C   N=           1
            
MM charges                                 R   N=           1
  0.00000000E+00
Integer atomic weights                     I   N=           1
          28
Real atomic weights                        R   N=           1
  2.79769284E+01
Atom fragment info                         I   N=           1
           0
Atom residue num                           I   N=           1
           0
Nuclear spins                              I   N=           1
           0
Nuclear ZEff                               R   N=           1
 -1.22500000E+01
Nuclear ZNuc                               R   N=           1
  1.40000000E+01
Nuclear QMom                               R   N=           1
  0.00000000E+00
Nuclear GFac                               R   N=           1
  0.00000000E+00
MicOpt                                     I   N=           1
          -1
Number of residues                         I                0
Number of secondary structures             I                0
SymInf integers                            I   N=          26
           1           8           1           1           1           1
          -1          -1          -1           1          -1          -1
          -1           1          -1          -1          -1          -1
           1           1           1          -1           1           1
           1          -1
RotTr to input orientation                 R   N=          12
  0.00000000E+00  0.00000000E+00 -1.00000000E+00  0.00000000E+00  1.00000000E+00
  0.00000000E+00  1.00000000E+00  0.00000000E+00  0.00000000E+00  0.00000000E+00
  0.00000000E+00  0.00000000E+00
Number of contracted shells                I               13
Number of primitive shells                 I               24
Pure/Cartesian d shells                    I                0
Pure/Cartesian f shells                    I                0
Highest angular momentum                   I                2
Largest degree of contraction              I                6
Shell types                                I   N=          13
           0           0           0           0           0           0
          -1           1           1           1           1           1
          -2
Number of primitives per shell             I   N=          13
           6           3           1           1           1           1
           1           4           2           1           1           1
           1
Shell to atom map                          I   N=          13
           1           1           1           1           1           1
           1           1           1           1           1           1
           1
Primitive exponents                        R   N=          24
  6.93792300E+04  1.03549400E+04  2.33387960E+03  6.57142950E+02  2.14301130E+02
  7.76291680E+01  7.76291680E+01  3.06308070E+01  1.28012950E+01  3.92686600E+00
  1.45234300E+00  2.56234000E-01  9.42790000E-02  3.31000000E-02  3.35483190E+02
  7.89003660E+01  2.49881500E+01  9.21971100E+00  3.62114000E+00  1.45131000E+00
  5.04977000E-01  1.86317000E-01  6.54320000E-02  4.50000000E-01
Contraction coefficients                   R   N=          24
  7.57000408E-04  5.93200320E-03  3.10880168E-02  1.24967067E-01  3.86897209E-01
  5.54888299E-01  1.77880945E-01  6.27764806E-01  2.47622924E-01  1.00000000E+00
  1.00000000E+00  1.00000000E+00  1.00000000E+00  1.00000000E+00  8.86599815E-03
  6.82989857E-02  2.90957939E-01  7.32116847E-01  6.19879440E-01  4.39148312E-01
  1.00000000E+00  1.00000000E+00  1.00000000E+00  1.00000000E+00
P(S=P) Contraction coefficients            R   N=          24
  0.00000000E+00  0.00000000E+00  0.00000000E+00  0.00000000E+00  0.00000000E+00
  0.00000000E+00  0.00000000E+00  0.00000000E+00  0.00000000E+00  0.00000000E+00
  0.00000000E+00  0.00000000E+00  0.00000000E+00  1.00000000E+00  0.00000000E+00
  0.00000000E+00  0.00000000E+00  0.00000000E+00  0.00000000E+00  0.00000000E+00
  0.00000000E+00  0.00000000E+00  0.00000000E+00  0.00000000E+00
Coordinates of each shell                  R   N=          39
  0.00000000E+00  0.00000000E+00  0.00000000E+00  0.00000000E+00  0.00000000E+00
  0.00000000E+00  0.00000000E+00  0.00000000E+00  0.00000000E+00  0.00000000E+00
  0.00000000E+00  0.00000000E+00  0.00000000E+00  0.00000000E+00  0.00000000E+00
  0.00000000E+00  0.00000000E+00  0.00000000E+00  0.00000000E+00  0.00000000E+00
  0.00000000E+00  0.00000000E+00  0.00000000E+00  0.00000000E+00  0.00000000E+00
  0.00000000E+00  0.00000000E+00  0.00000000E+00  0.00000000E+00  0.00000000E+00
  0.00000000E+00  0.00000000E+00  0.00000000E+00  0.00000000E+00  0.00000000E+00
  0.00000000E+00  0.00000000E+00  0.00000000E+00  0.00000000E+00
Num ILSW                                   I              100
ILSW                                       I   N=         100
           1           0           0           0           2           0
           0           0           0           0        1009          -1
           5           0           0           0           0           0
           0           0           0           0           0           0
           1           0           0           0           0           0
           0           0      100000           0          -1           0
           0           0           0           0           0           0
           0           0           0           1           0           0
           0 -2000000000           1           0           0           0
           0           0           4          52           0           0
           0           0          13           0           0           0
           0           0           0           1           0           1
           0           0           0           0           0           0
           0           0           0           0           0           0
           0           0           0           0           0           0
           0           0           0           0           0           0
           0           0           0           0
Num RLSW                                   I               52
RLSW                                       R   N=          52
  7.50000000E-01  7.50000000E-01  1.00000000E+00  1.00000000E+00  2.50000000E-01
  0.00000000E+00  0.00000000E+00  1.00000000E+00  0.00000000E+00  0.00000000E+00
  0.00000000E+00  0.00000000E+00  1.00000000E+00  0.00000000E+00  0.00000000E+00
  0.00000000E+00  0.00000000E+00  1.00000000E+00  0.00000000E+00  0.00000000E+00
  0.00000000E+00  0.00000000E+00  1.00000000E+00  0.00000000E+00  0.00000000E+00
  0.00000000E+00  0.00000000E+00  1.00000000E+00  0.00000000E+00  0.00000000E+00
  0.00000000E+00  0.00000000E+00  1.00000000E+00  0.00000000E+00  0.00000000E+00
  0.00000000E+00  0.00000000E+00  0.00000000E+00  1.00000000E+00  1.00000000E+00
  0.00000000E+00  1.00000000E+00  0.00000000E+00  0.00000000E+00  0.00000000E+00
  0.00000000E+00  0.00000000E+00  0.00000000E+00  0.00000000E+00  0.00000000E+00
  0.00000000E+00  0.00000000E+00
MxBond                                     I                1
NBond                                      I   N=           1
           0
IBond                                      I   N=           1
           0
RBond                                      R   N=           1
  0.00000000E+00
Virial Ratio                               R      2.001463314279440E+00
SCF Energy                                 R     -2.893039196330133E+02
Total Energy                               R     -2.893039196330133E+02
S**2                                       R      3.750287964175329E+00
S**2 after annihilation                    R      3.750000000920448E+00
RMS Density                                R      1.238454488112271E-09
Job Status                                 I                1
Nuclear derivative order                   I                0
External E-field                           R   N=          35
  0.00000000E+00  0.00000000E+00  0.00000000E+00  0.00000000E+00  0.00000000E+00
  0.00000000E+00  0.00000000E+00  0.00000000E+00  0.00000000E+00  0.00000000E+00
  0.00000000E+00  0.00000000E+00  0.00000000E+00  0.00000000E+00  0.00000000E+00
  0.00000000E+00  0.00000000E+00  0.00000000E+00  0.00000000E+00  0.00000000E+00
  0.00000000E+00  0.00000000E+00  0.00000000E+00  0.00000000E+00  0.00000000E+00
  0.00000000E+00  0.00000000E+00  0.00000000E+00  0.00000000E+00  0.00000000E+00
  0.00000000E+00  0.00000000E+00  0.00000000E+00  0.00000000E+00  0.00000000E+00
IOpCl                                      I                1
IROHF                                      I                0
Alpha Orbital Energies                     R   N=          30
 -6.60293109E+01 -5.10918885E+00 -3.44464391E+00 -3.44464391E+00 -3.44464391E+00
 -2.38302267E-01  1.68654076E-02  1.68654076E-02  1.68654076E-02  1.62847268E-01
  1.77881227E-01  1.77881227E-01  1.77881227E-01  4.63052770E-01  4.63052770E-01
  4.63052770E-01  6.02411491E-01  8.15355324E-01  8.15355324E-01  8.15355324E-01
  8.15355324E-01  8.15355324E-01  1.44026562E+00  1.44026562E+00  1.44026562E+00
  5.48676393E+00  1.15799375E+01  1.15799375E+01  1.15799375E+01  1.41060972E+02
Beta Orbital Energies                      R   N=          30
 -6.60220297E+01 -5.10163051E+00 -3.43262614E+00 -3.43262614E+00 -3.43262614E+00
 -1.41881482E-01  1.37848465E-01  1.37848465E-01  1.37848465E-01  1.97397930E-01
  2.20582040E-01  2.20582040E-01  2.20582040E-01  5.09017210E-01  5.09017210E-01
  5.09017210E-01  6.48556881E-01  8.88634752E-01  8.88634752E-01  8.88634752E-01
  8.88634752E-01  8.88634752E-01  1.48184970E+00  1.48184970E+00  1.48184970E+00
  5.50707916E+00  1.15972026E+01  1.15972026E+01  1.15972026E+01  1.41067593E+02
Alpha MO coefficients                      R   N=         900
  4.17751590E-01  6.46706256E-01  1.36309165E-02 -4.36023711E-03  1.71445824E-03
 -1.19313929E-03  3.91654506E-04  0.00000000E+00  0.00000000E+00  0.00000000E+00
  0.00000000E+00  0.00000000E+00  0.00000000E+00  0.00000000E+00  0.00000000E+00
  0.00000000E+00  0.00000000E+00  0.00000000E+00  0.00000000E+00  0.00000000E+00
  0.00000000E+00  0.00000000E+00  0.00000000E+00  0.00000000E+00  0.00000000E+00
 -4.99255052E-16  0.00000000E+00  0.00000000E+00  2.36166396E-16  0.00000000E+00
 -1.17114984E-01 -3.04923559E-01  5.39625857E-01  5.71458604E-01  5.16771140E-02
 -2.45806813E-02  7.50519370E-03  0.00000000E+00  0.00000000E+00  0.00000000E+00
  0.00000000E+00  0.00000000E+00  0.00000000E+00  0.00000000E+00  0.00000000E+00
  0.00000000E+00  0.00000000E+00  0.00000000E+00  0.00000000E+00  0.00000000E+00
  0.00000000E+00  0.00000000E+00  0.00000000E+00  0.00000000E+00  0.00000000E+00
  4.76519136E-16  0.00000000E+00  0.00000000E+00 -5.98418937E-16  0.00000000E+00
  0.00000000E+00  0.00000000E+00  0.00000000E+00  0.00000000E+00  0.00000000E+00
  0.00000000E+00  0.00000000E+00  0.00000000E+00 -1.95390797E-03  0.00000000E+00
  0.00000000E+00  4.03384380E-01  0.00000000E+00  0.00000000E+00  6.90565037E-01
  0.00000000E+00  0.00000000E+00  5.65924423E-02  0.00000000E+00  0.00000000E+00
 -7.61124253E-03  0.00000000E+00  0.00000000E+00  4.41430272E-03  0.00000000E+00
  0.00000000E+00  0.00000000E+00  0.00000000E+00  0.00000000E+00  0.00000000E+00
  0.00000000E+00  0.00000000E+00  0.00000000E+00  0.00000000E+00  0.00000000E+00
  0.00000000E+00  0.00000000E+00  0.00000000E+00  0.00000000E+00 -1.95390797E-03
  0.00000000E+00  0.00000000E+00  4.03384380E-01  0.00000000E+00  0.00000000E+00
  6.90565037E-01  0.00000000E+00  0.00000000E+00  5.65924423E-02  0.00000000E+00
  0.00000000E+00 -7.61124253E-03  0.00000000E+00  0.00000000E+00  4.41430272E-03
  0.00000000E+00  0.00000000E+00  0.00000000E+00  0.00000000E+00  0.00000000E+00
  0.00000000E+00  0.00000000E+00  0.00000000E+00  0.00000000E+00  0.00000000E+00
  0.00000000E+00  0.00000000E+00 -1.95390797E-03  0.00000000E+00  0.00000000E+00
  4.03384380E-01  0.00000000E+00  0.00000000E+00  6.90565037E-01  0.00000000E+00
  0.00000000E+00  5.65924423E-02  0.00000000E+00  0.00000000E+00 -7.61124253E-03
  0.00000000E+00  0.00000000E+00  4.41430272E-03  0.00000000E+00  0.00000000E+00
  0.00000000E+00  0.00000000E+00  0.00000000E+00  0.00000000E+00  0.00000000E+00
  3.06542406E-02  8.40367583E-02 -1.89388415E-01 -3.26645553E-01  5.58362872E-01
  5.55897948E-01  5.26244561E-02  0.00000000E+00  0.00000000E+00  0.00000000E+00
  0.00000000E+00  0.00000000E+00  0.00000000E+00  0.00000000E+00  0.00000000E+00
  0.00000000E+00  0.00000000E+00  0.00000000E+00  0.00000000E+00  0.00000000E+00
  0.00000000E+00  0.00000000E+00  0.00000000E+00  0.00000000E+00  0.00000000E+00
 -1.45171193E-15  0.00000000E+00  0.00000000E+00 -1.80184696E-16  0.00000000E+00
  0.00000000E+00  0.00000000E+00  0.00000000E+00  0.00000000E+00  0.00000000E+00
  0.00000000E+00  0.00000000E+00  0.00000000E+00  0.00000000E+00  2.46953498E-01
  0.00000000E+00  0.00000000E+00 -8.24524529E-02  0.00000000E+00  0.00000000E+00
 -1.43501499E-01  0.00000000E+00  0.00000000E+00  1.66542843E-01  0.00000000E+00
  0.00000000E+00  4.83101364E-01  0.00000000E+00  0.00000000E+00  3.06161911E-01
  0.00000000E+00  0.00000000E+00  0.00000000E+00  0.00000000E+00  0.00000000E+00
  0.00000000E+00  0.00000000E+00  0.00000000E+00  0.00000000E+00  0.00000000E+00
  0.00000000E+00  0.00000000E+00  0.00000000E+00  2.46953498E-01  0.00000000E+00
  0.00000000E+00 -8.24524529E-02  0.00000000E+00  0.00000000E+00 -1.43501499E-01
  0.00000000E+00  0.00000000E+00  1.66542843E-01  0.00000000E+00  0.00000000E+00
  4.83101364E-01  0.00000000E+00  0.00000000E+00  3.06161911E-01  0.00000000E+00
  0.00000000E+00  0.00000000E+00  0.00000000E+00  0.00000000E+00  0.00000000E+00
  0.00000000E+00  0.00000000E+00  0.00000000E+00  0.00000000E+00  0.00000000E+00
  0.00000000E+00  0.00000000E+00  2.46953498E-01  0.00000000E+00  0.00000000E+00
 -8.24524529E-02  0.00000000E+00  0.00000000E+00 -1.43501499E-01  0.00000000E+00
  0.00000000E+00  1.66542843E-01  0.00000000E+00  0.00000000E+00  4.83101364E-01
  0.00000000E+00  0.00000000E+00  3.06161911E-01  0.00000000E+00  0.00000000E+00
  0.00000000E+00  0.00000000E+00  0.00000000E+00  0.00000000E+00  0.00000000E+00
 -1.09696952E-02 -3.09937192E-02  7.83599123E-02  9.54180207E-02 -1.44788450E-02
 -1.36264297E+00  1.76091142E+00  0.00000000E+00  0.00000000E+00  0.00000000E+00
  0.00000000E+00  0.00000000E+00  0.00000000E+00  0.00000000E+00  0.00000000E+00
  0.00000000E+00  0.00000000E+00  0.00000000E+00  0.00000000E+00  0.00000000E+00
  0.00000000E+00  0.00000000E+00  0.00000000E+00  0.00000000E+00  0.00000000E+00
  1.24663117E-15  0.00000000E+00  0.00000000E+00 -2.52992515E-15  0.00000000E+00
  0.00000000E+00  0.00000000E+00  0.00000000E+00  0.00000000E+00  0.00000000E+00
  0.00000000E+00  0.00000000E+00  1.90452132E+00  0.00000000E+00  0.00000000E+00
  4.24421178E-02  0.00000000E+00  0.00000000E+00  8.11152582E-02  0.00000000E+00
  0.00000000E+00 -1.56939769E-01  0.00000000E+00  0.00000000E+00  6.40301872E-03
  0.00000000E+00  0.00000000E+00 -1.45732545E+00  0.00000000E+00  0.00000000E+00
  0.00000000E+00  0.00000000E+00  0.00000000E+00  0.00000000E+00  0.00000000E+00
  0.00000000E+00  0.00000000E+00  0.00000000E+00  0.00000000E+00  0.00000000E+00
  0.00000000E+00  0.00000000E+00  0.00000000E+00  1.90452132E+00  0.00000000E+00
  0.00000000E+00  4.24421178E-02  0.00000000E+00  0.00000000E+00  8.11152582E-02
  0.00000000E+00  0.00000000E+00 -1.56939769E-01  0.00000000E+00  0.00000000E+00
  6.40301872E-03  0.00000000E+00  0.00000000E+00 -1.45732545E+00  0.00000000E+00
  0.00000000E+00  0.00000000E+00  0.00000000E+00  0.00000000E+00  0.00000000E+00
  0.00000000E+00  0.00000000E+00  0.00000000E+00  0.00000000E+00  0.00000000E+00
  0.00000000E+00  0.00000000E+00  0.00000000E+00  0.00000000E+00  1.90452132E+00
  0.00000000E+00  0.00000000E+00  4.24421178E-02  0.00000000E+00  0.00000000E+00
  8.11152582E-02  0.00000000E+00  0.00000000E+00 -1.56939769E-01  0.00000000E+00
  0.00000000E+00  6.40301872E-03  0.00000000E+00  0.00000000E+00 -1.45732545E+00
  0.00000000E+00  0.00000000E+00  0.00000000E+00  0.00000000E+00  0.00000000E+00
  0.00000000E+00  0.00000000E+00  0.00000000E+00  0.00000000E+00  0.00000000E+00
  0.00000000E+00  0.00000000E+00  0.00000000E+00  0.00000000E+00 -1.52495848E+00
  0.00000000E+00  0.00000000E+00  8.43909079E-02  0.00000000E+00  0.00000000E+00
  1.28640941E-01  0.00000000E+00  0.00000000E+00 -3.32974983E-02  0.00000000E+00
  0.00000000E+00 -1.57940995E+00  0.00000000E+00  0.00000000E+00  2.83173661E+00
  0.00000000E+00  0.00000000E+00  0.00000000E+00  0.00000000E+00  0.00000000E+00
  0.00000000E+00  0.00000000E+00  0.00000000E+00  0.00000000E+00  0.00000000E+00
  0.00000000E+00  0.00000000E+00 -1.52495848E+00  0.00000000E+00  0.00000000E+00
  8.43909079E-02  0.00000000E+00  0.00000000E+00  1.28640941E-01  0.00000000E+00
  0.00000000E+00 -3.32974983E-02  0.00000000E+00  0.00000000E+00 -1.57940995E+00
  0.00000000E+00  0.00000000E+00  2.83173661E+00  0.00000000E+00  0.00000000E+00
  0.00000000E+00  0.00000000E+00  0.00000000E+00  0.00000000E+00  0.00000000E+00
  0.00000000E+00  0.00000000E+00  0.00000000E+00  0.00000000E+00  0.00000000E+00
  0.00000000E+00  0.00000000E+00  0.00000000E+00 -1.52495848E+00  0.00000000E+00
  0.00000000E+00  8.43909079E-02  0.00000000E+00  0.00000000E+00  1.28640941E-01
  0.00000000E+00  0.00000000E+00 -3.32974983E-02  0.00000000E+00  0.00000000E+00
 -1.57940995E+00  0.00000000E+00  0.00000000E+00  2.83173661E+00  0.00000000E+00
  0.00000000E+00  0.00000000E+00  0.00000000E+00  0.00000000E+00  0.00000000E+00
 -3.17811764E-02 -8.38389845E-02  1.58860352E-01  5.51414247E-01 -2.69080531E+00
  3.30061820E+00 -1.29634582E+00  0.00000000E+00  0.00000000E+00  0.00000000E+00
  0.00000000E+00  0.00000000E+00  0.00000000E+00  0.00000000E+00  0.00000000E+00
  0.00000000E+00  0.00000000E+00  0.00000000E+00  0.00000000E+00  0.00000000E+00
  0.00000000E+00  0.00000000E+00  0.00000000E+00  0.00000000E+00  0.00000000E+00
 -9.47862124E-15  0.00000000E+00  0.00000000E+00  2.82352692E-15  0.00000000E+00
  0.00000000E+00  0.00000000E+00  0.00000000E+00  0.00000000E+00  0.00000000E+00
  0.00000000E+00  0.00000000E+00  0.00000000E+00  0.00000000E+00  0.00000000E+00
  0.00000000E+00  0.00000000E+00  0.00000000E+00  0.00000000E+00  0.00000000E+00
  0.00000000E+00  0.00000000E+00  0.00000000E+00  0.00000000E+00  0.00000000E+00
  0.00000000E+00  0.00000000E+00  0.00000000E+00  0.00000000E+00  0.00000000E+00
  0.00000000E+00  0.00000000E+00  0.00000000E+00  0.00000000E+00  1.00000000E+00
  0.00000000E+00  0.00000000E+00  0.00000000E+00  0.00000000E+00  0.00000000E+00
  0.00000000E+00  0.00000000E+00  0.00000000E+00  0.00000000E+00  0.00000000E+00
  0.00000000E+00  0.00000000E+00  0.00000000E+00  0.00000000E+00  0.00000000E+00
  0.00000000E+00  0.00000000E+00  0.00000000E+00  0.00000000E+00  0.00000000E+00
  0.00000000E+00  0.00000000E+00  0.00000000E+00  0.00000000E+00  0.00000000E+00
  0.00000000E+00  1.00000000E+00  0.00000000E+00  0.00000000E+00  0.00000000E+00
  0.00000000E+00  0.00000000E+00  0.00000000E+00  0.00000000E+00  0.00000000E+00
  0.00000000E+00  0.00000000E+00  0.00000000E+00  0.00000000E+00  0.00000000E+00
  0.00000000E+00  0.00000000E+00  0.00000000E+00  0.00000000E+00  0.00000000E+00
  0.00000000E+00  0.00000000E+00  0.00000000E+00  0.00000000E+00  0.00000000E+00
  0.00000000E+00  0.00000000E+00  0.00000000E+00  0.00000000E+00  0.00000000E+00
  0.00000000E+00  0.00000000E+00  1.00000000E+00  0.00000000E+00  0.00000000E+00
  2.41833223E-16  6.53437123E-16 -1.63842873E-15 -2.59769002E-15  1.78927189E-14
 -2.67469989E-14  1.41412937E-14  0.00000000E+00  0.00000000E+00  0.00000000E+00
  0.00000000E+00  0.00000000E+00  0.00000000E+00  0.00000000E+00  0.00000000E+00
  0.00000000E+00  0.00000000E+00  0.00000000E+00  0.00000000E+00  0.00000000E+00
  0.00000000E+00  0.00000000E+00  0.00000000E+00  0.00000000E+00  0.00000000E+00
 -4.96045353E-01  0.00000000E+00  0.00000000E+00  8.68296613E-01  0.00000000E+00
 -1.26834607E-16 -4.42157009E-16  1.37742268E-15  2.78143586E-15 -1.76349611E-14
  2.31483739E-14 -8.31322736E-15  0.00000000E+00  0.00000000E+00  0.00000000E+00
  0.00000000E+00  0.00000000E+00  0.00000000E+00  0.00000000E+00  0.00000000E+00
  0.00000000E+00  0.00000000E+00  0.00000000E+00  0.00000000E+00  0.00000000E+00
  0.00000000E+00  0.00000000E+00  0.00000000E+00  0.00000000E+00  0.00000000E+00
  8.68296613E-01  0.00000000E+00  0.00000000E+00  4.96045353E-01  0.00000000E+00
  0.00000000E+00  0.00000000E+00  0.00000000E+00  0.00000000E+00  0.00000000E+00
  0.00000000E+00  0.00000000E+00  7.65894487E-01  0.00000000E+00  0.00000000E+00
  1.81687589E-01  0.00000000E+00  0.00000000E+00  4.13423895E-01  0.00000000E+00
  0.00000000E+00 -2.00614955E+00  0.00000000E+00  0.00000000E+00  2.41083624E+00
  0.00000000E+00  0.00000000E+00 -1.72167176E+00  0.00000000E+00  0.00000000E+00
  0.00000000E+00  0.00000000E+00  0.00000000E+00  0.00000000E+00  0.00000000E+00
  0.00000000E+00  0.00000000E+00  0.00000000E+00  0.00000000E+00  0.00000000E+00
  0.00000000E+00  0.00000000E+00  0.00000000E+00  0.00000000E+00  7.65894487E-01
  0.00000000E+00  0.00000000E+00  1.81687589E-01  0.00000000E+00  0.00000000E+00
  4.13423895E-01  0.00000000E+00  0.00000000E+00 -2.00614955E+00  0.00000000E+00
  0.00000000E+00  2.41083624E+00  0.00000000E+00  0.00000000E+00 -1.72167176E+00
  0.00000000E+00  0.00000000E+00  0.00000000E+00  0.00000000E+00  0.00000000E+00
  0.00000000E+00  0.00000000E+00  0.00000000E+00  0.00000000E+00  0.00000000E+00
  0.00000000E+00  0.00000000E+00  0.00000000E+00  7.65894487E-01  0.00000000E+00
  0.00000000E+00  1.81687589E-01  0.00000000E+00  0.00000000E+00  4.13423895E-01
  0.00000000E+00  0.00000000E+00 -2.00614955E+00  0.00000000E+00  0.00000000E+00
  2.41083624E+00  0.00000000E+00  0.00000000E+00 -1.72167176E+00  0.00000000E+00
  0.00000000E+00  0.00000000E+00  0.00000000E+00  0.00000000E+00  0.00000000E+00
  1.11841546E-01  4.18507663E-01 -2.35802314E+00  2.67380062E+00 -1.58776513E+00
  1.11880516E+00 -3.62371454E-01  0.00000000E+00  0.00000000E+00  0.00000000E+00
  0.00000000E+00  0.00000000E+00  0.00000000E+00  0.00000000E+00  0.00000000E+00
  0.00000000E+00  0.00000000E+00  0.00000000E+00  0.00000000E+00  0.00000000E+00
  0.00000000E+00  0.00000000E+00  0.00000000E+00  0.00000000E+00  0.00000000E+00
  5.80441330E-16  0.00000000E+00  0.00000000E+00 -5.24675309E-16  0.00000000E+00
  0.00000000E+00  0.00000000E+00  0.00000000E+00  0.00000000E+00  0.00000000E+00
  0.00000000E+00  0.00000000E+00  2.18016134E-01  0.00000000E+00  0.00000000E+00
 -1.19192631E+00  0.00000000E+00  0.00000000E+00  1.37269023E+00  0.00000000E+00
  0.00000000E+00 -1.02236805E+00  0.00000000E+00  0.00000000E+00  7.49776055E-01
  0.00000000E+00  0.00000000E+00 -4.80387587E-01  0.00000000E+00  0.00000000E+00
  0.00000000E+00  0.00000000E+00  0.00000000E+00  0.00000000E+00  0.00000000E+00
  0.00000000E+00  0.00000000E+00  0.00000000E+00  0.00000000E+00  0.00000000E+00
  0.00000000E+00  0.00000000E+00  0.00000000E+00  2.18016134E-01  0.00000000E+00
  0.00000000E+00 -1.19192631E+00  0.00000000E+00  0.00000000E+00  1.37269023E+00
  0.00000000E+00  0.00000000E+00 -1.02236805E+00  0.00000000E+00  0.00000000E+00
  7.49776055E-01  0.00000000E+00  0.00000000E+00 -4.80387587E-01  0.00000000E+00
  0.00000000E+00  0.00000000E+00  0.00000000E+00  0.00000000E+00  0.00000000E+00
  0.00000000E+00  0.00000000E+00  0.00000000E+00  0.00000000E+00  0.00000000E+00
  0.00000000E+00  0.00000000E+00  0.00000000E+00  0.00000000E+00  2.18016134E-01
  0.00000000E+00  0.00000000E+00 -1.19192631E+00  0.00000000E+00  0.00000000E+00
  1.37269023E+00  0.00000000E+00  0.00000000E+00 -1.02236805E+00  0.00000000E+00
  0.00000000E+00  7.49776055E-01  0.00000000E+00  0.00000000E+00 -4.80387587E-01
  0.00000000E+00  0.00000000E+00  0.00000000E+00  0.00000000E+00  0.00000000E+00
 -1.54886104E+00  1.85518448E+00 -1.23417928E+00  7.73553848E-01 -3.30212442E-01
  2.29663118E-01 -7.55183099E-02  0.00000000E+00  0.00000000E+00  0.00000000E+00
  0.00000000E+00  0.00000000E+00  0.00000000E+00  0.00000000E+00  0.00000000E+00
  0.00000000E+00  0.00000000E+00  0.00000000E+00  0.00000000E+00  0.00000000E+00
  0.00000000E+00  0.00000000E+00  0.00000000E+00  0.00000000E+00  0.00000000E+00
 -1.55852627E-17  0.00000000E+00  0.00000000E+00  1.61045628E-17  0.00000000E+00
Beta MO coefficients                       R   N=         900
  4.17807233E-01  6.46695244E-01  1.35143837E-02 -4.29990196E-03  1.70155502E-03
 -1.17746413E-03  3.87403777E-04  0.00000000E+00  0.00000000E+00  0.00000000E+00
  0.00000000E+00  0.00000000E+00  0.00000000E+00  0.00000000E+00  0.00000000E+00
  0.00000000E+00  0.00000000E+00  0.00000000E+00  0.00000000E+00  0.00000000E+00
  0.00000000E+00  0.00000000E+00  0.00000000E+00  0.00000000E+00  0.00000000E+00
  2.78998406E-16  0.00000000E+00  0.00000000E+00 -4.10140226E-16  0.00000000E+00
 -1.17045025E-01 -3.04729344E-01  5.38412462E-01  5.73337263E-01  5.01742448E-02
 -2.44062163E-02  7.37858192E-03  0.00000000E+00  0.00000000E+00  0.00000000E+00
  0.00000000E+00  0.00000000E+00  0.00000000E+00  0.00000000E+00  0.00000000E+00
  0.00000000E+00  0.00000000E+00  0.00000000E+00  0.00000000E+00  0.00000000E+00
  0.00000000E+00  0.00000000E+00  0.00000000E+00  0.00000000E+00  0.00000000E+00
 -4.51691323E-17  0.00000000E+00  0.00000000E+00  5.13257441E-16  0.00000000E+00
  0.00000000E+00  0.00000000E+00  0.00000000E+00  0.00000000E+00  0.00000000E+00
  0.00000000E+00  0.00000000E+00  0.00000000E+00  0.00000000E+00 -2.33292081E-03
  0.00000000E+00  0.00000000E+00  4.02526395E-01  0.00000000E+00  0.00000000E+00
  6.91317891E-01  0.00000000E+00  0.00000000E+00  5.70243410E-02  0.00000000E+00
  0.00000000E+00 -8.95739312E-03  0.00000000E+00  0.00000000E+00  5.21023629E-03
  0.00000000E+00  0.00000000E+00  0.00000000E+00  0.00000000E+00  0.00000000E+00
  0.00000000E+00  0.00000000E+00  0.00000000E+00  0.00000000E+00  0.00000000E+00
  0.00000000E+00  0.00000000E+00  0.00000000E+00 -2.33292081E-03  0.00000000E+00
  0.00000000E+00  4.02526395E-01  0.00000000E+00  0.00000000E+00  6.91317891E-01
  0.00000000E+00  0.00000000E+00  5.70243410E-02  0.00000000E+00  0.00000000E+00
 -8.95739312E-03  0.00000000E+00  0.00000000E+00  5.21023629E-03  0.00000000E+00
  0.00000000E+00  0.00000000E+00  0.00000000E+00  0.00000000E+00  0.00000000E+00
  0.00000000E+00  0.00000000E+00  0.00000000E+00  0.00000000E+00  0.00000000E+00
  0.00000000E+00  0.00000000E+00 -2.33292081E-03  0.00000000E+00  0.00000000E+00
  4.02526395E-01  0.00000000E+00  0.00000000E+00  6.91317891E-01  0.00000000E+00
  0.00000000E+00  5.70243410E-02  0.00000000E+00  0.00000000E+00 -8.95739312E-03
  0.00000000E+00  0.00000000E+00  5.21023629E-03  0.00000000E+00  0.00000000E+00
  0.00000000E+00  0.00000000E+00  0.00000000E+00  0.00000000E+00  0.00000000E+00
  3.13498264E-02  8.64920537E-02 -1.99776120E-01 -3.24109769E-01  5.93962268E-01
  5.01248161E-01  8.12051919E-02  0.00000000E+00  0.00000000E+00  0.00000000E+00
  0.00000000E+00  0.00000000E+00  0.00000000E+00  0.00000000E+00  0.00000000E+00
  0.00000000E+00  0.00000000E+00  0.00000000E+00  0.00000000E+00  0.00000000E+00
  0.00000000E+00  0.00000000E+00  0.00000000E+00  0.00000000E+00  0.00000000E+00
 -1.17670602E-17  0.00000000E+00  0.00000000E+00  3.68796612E-17  0.00000000E+00
  0.00000000E+00  0.00000000E+00  0.00000000E+00  0.00000000E+00  0.00000000E+00
  0.00000000E+00  0.00000000E+00  0.00000000E+00  7.47069208E-01  0.00000000E+00
  0.00000000E+00 -6.35957319E-02  0.00000000E+00  0.00000000E+00 -1.09202970E-01
  0.00000000E+00  0.00000000E+00  1.23130515E-01  0.00000000E+00  0.00000000E+00
  3.82537089E-01  0.00000000E+00  0.00000000E+00 -2.62197282E-02  0.00000000E+00
  0.00000000E+00  0.00000000E+00  0.00000000E+00  0.00000000E+00  0.00000000E+00
  0.00000000E+00  0.00000000E+00  0.00000000E+00  0.00000000E+00  0.00000000E+00
  0.00000000E+00  0.00000000E+00  0.00000000E+00  0.00000000E+00  7.47069208E-01
  0.00000000E+00  0.00000000E+00 -6.35957319E-02  0.00000000E+00  0.00000000E+00
 -1.09202970E-01  0.00000000E+00  0.00000000E+00  1.23130515E-01  0.00000000E+00
  0.00000000E+00  3.82537089E-01  0.00000000E+00  0.00000000E+00 -2.62197282E-02
  0.00000000E+00  0.00000000E+00  0.00000000E+00  0.00000000E+00  0.00000000E+00