fubar                                                                   
SP        UPBE1PBE                                                    6-311+G(d,p)        
Number of atoms                            I                1
Info1-9                                    I   N=           9
          11          10           0           0           0         110
           1          18       -1302
Full Title                                 C   N=           1
fubar       
Route                                      C   N=           3
#PBE1PBE/6-311+G(d,p) scf=tight     
Charge                                     I                2
Multiplicity                               I                4
Number of electrons                        I               15
Number of alpha electrons                  I                9
Number of beta electrons                   I                6
Number of basis functions                  I               30
Number of independent functions            I               30
Number of point charges in /Mol/           I                0
Number of translation vectors              I                0
Atomic numbers                             I   N=           1
          17
Nuclear charges                            R   N=           1
  1.70000000E+01
Current cartesian coordinates              R   N=           3
  0.00000000E+00  0.00000000E+00  0.00000000E+00
Number of symbols in /Mol/                 I                0
Int Atom Types                             I   N=           1
           0
Force Field                                I                0
Atom Types                                 C   N=           1
            
MM charges                                 R   N=           1
  0.00000000E+00
Integer atomic weights                     I   N=           1
          35
Real atomic weights                        R   N=           1
  3.49688527E+01
Atom fragment info                         I   N=           1
           0
Atom residue num                           I   N=           1
           0
Nuclear spins                              I   N=           1
           3
Nuclear ZEff                               R   N=           1
 -1.42400000E+01
Nuclear ZNuc                               R   N=           1
  1.70000000E+01
Nuclear QMom                               R   N=           1
 -8.16500000E+00
Nuclear GFac                               R   N=           1
  8.21874000E-01
MicOpt                                     I   N=           1
          -1
Number of residues                         I                0
Number of secondary structures             I                0
SymInf integers                            I   N=          26
           1           8           1           1           1           1
          -1          -1          -1           1          -1          -1
          -1           1          -1          -1          -1          -1
           1           1           1          -1           1           1
           1          -1
RotTr to input orientation                 R   N=          12
  0.00000000E+00  0.00000000E+00 -1.00000000E+00  0.00000000E+00  1.00000000E+00
  0.00000000E+00  1.00000000E+00  0.00000000E+00  0.00000000E+00  0.00000000E+00
  0.00000000E+00  0.00000000E+00
Number of contracted shells                I               13
Number of primitive shells                 I               25
Pure/Cartesian d shells                    I                0
Pure/Cartesian f shells                    I                0
Highest angular momentum                   I                2
Largest degree of contraction              I                6
Shell types                                I   N=          13
           0           0           0           0           0           0
          -1           1           1           1           1           1
          -2
Number of primitives per shell             I   N=          13
           6           3           1           1           1           1
           1           5           2           1           1           1
           1
Shell to atom map                          I   N=          13
           1           1           1           1           1           1
           1           1           1           1           1           1
           1
Primitive exponents                        R   N=          25
  1.05819000E+05  1.58720000E+04  3.61965000E+03  1.03080000E+03  3.39908000E+02
  1.24538000E+02  1.24538000E+02  4.95135000E+01  2.08056000E+01  6.58346000E+00
  2.56468000E+00  5.59763000E-01  1.83273000E-01  4.83000000E-02  5.89776000E+02
  1.39849000E+02  4.51413000E+01  1.68733000E+01  2.77152000E+00  6.74110000E+00
  2.77152000E+00  1.02387000E+00  3.81368000E-01  1.09437000E-01  7.50000000E-01
Contraction coefficients                   R   N=          25
  7.38000247E-04  5.71800191E-03  2.94950099E-02  1.17286039E-01  3.62949121E-01
  5.84149195E-01  1.34176973E-01  6.24249876E-01  2.91755942E-01  1.00000000E+00
  1.00000000E+00  1.00000000E+00  1.00000000E+00  1.00000000E+00  3.66556935E-03
  2.83679194E-02  1.24756603E-01  3.39654631E-01  7.47585963E-01 -1.57224381E+00
  9.92388882E-01  1.00000000E+00  1.00000000E+00  1.00000000E+00  1.00000000E+00
P(S=P) Contraction coefficients            R   N=          25
  0.00000000E+00  0.00000000E+00  0.00000000E+00  0.00000000E+00  0.00000000E+00
  0.00000000E+00  0.00000000E+00  0.00000000E+00  0.00000000E+00  0.00000000E+00
  0.00000000E+00  0.00000000E+00  0.00000000E+00  1.00000000E+00  0.00000000E+00
  0.00000000E+00  0.00000000E+00  0.00000000E+00  0.00000000E+00  0.00000000E+00
  0.00000000E+00  0.00000000E+00  0.00000000E+00  0.00000000E+00  0.00000000E+00
Coordinates of each shell                  R   N=          39
  0.00000000E+00  0.00000000E+00  0.00000000E+00  0.00000000E+00  0.00000000E+00
  0.00000000E+00  0.00000000E+00  0.00000000E+00  0.00000000E+00  0.00000000E+00
  0.00000000E+00  0.00000000E+00  0.00000000E+00  0.00000000E+00  0.00000000E+00
  0.00000000E+00  0.00000000E+00  0.00000000E+00  0.00000000E+00  0.00000000E+00
  0.00000000E+00  0.00000000E+00  0.00000000E+00  0.00000000E+00  0.00000000E+00
  0.00000000E+00  0.00000000E+00  0.00000000E+00  0.00000000E+00  0.00000000E+00
  0.00000000E+00  0.00000000E+00  0.00000000E+00  0.00000000E+00  0.00000000E+00
  0.00000000E+00  0.00000000E+00  0.00000000E+00  0.00000000E+00
Num ILSW                                   I              100
ILSW                                       I   N=         100
           1           0           0           0           2           0
           0           0           0           0        1009          -1
           5           0           0           0           0           0
           0           0           0           0           0           0
           1           0           0           0           0           0
           0           0      100000           0          -1           0
           0           0           0           0           0           0
           0           0           0           1           0           0
           0 -2000000000           1           0           0           0
           0           0           4          52           0           0
           0           0          13           0           0           0
           0           0           0           1           0           1
           0           0           0           0           0           0
           0           0           0           0           0           0
           0           0           0           0           0           0
           0           0           0           0           0           0
           0           0           0           0
Num RLSW                                   I               52
RLSW                                       R   N=          52
  7.50000000E-01  7.50000000E-01  1.00000000E+00  1.00000000E+00  2.50000000E-01
  0.00000000E+00  0.00000000E+00  1.00000000E+00  0.00000000E+00  0.00000000E+00
  0.00000000E+00  0.00000000E+00  1.00000000E+00  0.00000000E+00  0.00000000E+00
  0.00000000E+00  0.00000000E+00  1.00000000E+00  0.00000000E+00  0.00000000E+00
  0.00000000E+00  0.00000000E+00  1.00000000E+00  0.00000000E+00  0.00000000E+00
  0.00000000E+00  0.00000000E+00  1.00000000E+00  0.00000000E+00  0.00000000E+00
  0.00000000E+00  0.00000000E+00  1.00000000E+00  0.00000000E+00  0.00000000E+00
  0.00000000E+00  0.00000000E+00  0.00000000E+00  1.00000000E+00  1.00000000E+00
  0.00000000E+00  1.00000000E+00  0.00000000E+00  0.00000000E+00  0.00000000E+00
  0.00000000E+00  0.00000000E+00  0.00000000E+00  0.00000000E+00  0.00000000E+00
  0.00000000E+00  0.00000000E+00
MxBond                                     I                1
NBond                                      I   N=           1
           0
IBond                                      I   N=           1
           0
RBond                                      R   N=           1
  0.00000000E+00
Virial Ratio                               R      2.001663134206185E+00
SCF Energy                                 R     -4.586459725884347E+02
Total Energy                               R     -4.586459725884347E+02
S**2                                       R      3.750297426283334E+00
S**2 after annihilation                    R      3.750000000717311E+00
RMS Density                                R      8.555057589310156E-09
Job Status                                 I                1
Nuclear derivative order                   I                0
External E-field                           R   N=          35
  0.00000000E+00  0.00000000E+00  0.00000000E+00  0.00000000E+00  0.00000000E+00
  0.00000000E+00  0.00000000E+00  0.00000000E+00  0.00000000E+00  0.00000000E+00
  0.00000000E+00  0.00000000E+00  0.00000000E+00  0.00000000E+00  0.00000000E+00
  0.00000000E+00  0.00000000E+00  0.00000000E+00  0.00000000E+00  0.00000000E+00
  0.00000000E+00  0.00000000E+00  0.00000000E+00  0.00000000E+00  0.00000000E+00
  0.00000000E+00  0.00000000E+00  0.00000000E+00  0.00000000E+00  0.00000000E+00
  0.00000000E+00  0.00000000E+00  0.00000000E+00  0.00000000E+00  0.00000000E+00
IOpCl                                      I                1
IROHF                                      I                0
Alpha Orbital Energies                     R   N=          30
 -1.02824669E+02 -1.06058934E+01 -8.34467854E+00 -8.34467854E+00 -8.34467854E+00
 -1.80881643E+00 -1.28446110E+00 -1.28446110E+00 -1.28446110E+00 -4.39858331E-01
 -3.37886083E-01 -3.37886083E-01 -3.37886083E-01 -1.27356224E-01 -1.27356224E-01
 -1.27356224E-01 -1.27356224E-01 -1.27356224E-01 -7.00389222E-02 -7.00389222E-02
 -7.00389222E-02  1.02624941E-01  1.37739685E+00  1.37739685E+00  1.37739685E+00
  8.49356164E+00  2.48002830E+01  2.48002830E+01  2.48002830E+01  2.14592421E+02
Beta Orbital Energies                      R   N=          30
 -1.02798558E+02 -1.05805359E+01 -8.30520833E+00 -8.30520833E+00 -8.30520833E+00
 -1.60316937E+00 -1.01390676E+00 -1.01390676E+00 -1.01390676E+00 -4.02058833E-01
 -3.03204835E-01 -3.03204835E-01 -3.03204835E-01 -3.52369236E-02 -3.52369236E-02
 -3.52369236E-02  4.50548815E-02  4.50548815E-02  4.50548815E-02  4.50548815E-02
  4.50548815E-02  1.65711744E-01  1.46792878E+00  1.46792878E+00  1.46792878E+00
  8.54717872E+00  2.48525885E+01  2.48525885E+01  2.48525885E+01  2.14615383E+02
Alpha MO coefficients                      R   N=         900
  4.11728913E-01  6.54004179E-01  1.47949644E-02 -3.67320498E-03  1.19449045E-03
 -6.25656142E-04  1.72826168E-04  0.00000000E+00  0.00000000E+00  0.00000000E+00
  0.00000000E+00  0.00000000E+00  0.00000000E+00  0.00000000E+00  0.00000000E+00
  0.00000000E+00  0.00000000E+00  0.00000000E+00  0.00000000E+00  0.00000000E+00
  0.00000000E+00  0.00000000E+00  0.00000000E+00  0.00000000E+00  0.00000000E+00
  7.64230503E-17  0.00000000E+00  0.00000000E+00 -4.11820262E-18  0.00000000E+00
 -1.22008189E-01 -3.28256485E-01  5.02656851E-01  6.07739848E-01  5.38393612E-02
 -1.58770771E-02  3.91927571E-03  0.00000000E+00  0.00000000E+00  0.00000000E+00
  0.00000000E+00  0.00000000E+00  0.00000000E+00  0.00000000E+00  0.00000000E+00
  0.00000000E+00  0.00000000E+00  0.00000000E+00  0.00000000E+00  0.00000000E+00
  0.00000000E+00  0.00000000E+00  0.00000000E+00  0.00000000E+00  0.00000000E+00
 -1.07372732E-16  0.00000000E+00  0.00000000E+00 -3.34437726E-16  0.00000000E+00
  0.00000000E+00  0.00000000E+00  0.00000000E+00  0.00000000E+00  0.00000000E+00
  0.00000000E+00  0.00000000E+00  0.00000000E+00  1.43217305E-04  0.00000000E+00
  0.00000000E+00  8.03940433E-01  0.00000000E+00  0.00000000E+00 -2.74728000E-01
  0.00000000E+00  0.00000000E+00  5.13223501E-02  0.00000000E+00  0.00000000E+00
 -6.29222315E-04  0.00000000E+00  0.00000000E+00 -1.99316289E-04  0.00000000E+00
  0.00000000E+00  0.00000000E+00  0.00000000E+00  0.00000000E+00  0.00000000E+00
  0.00000000E+00  0.00000000E+00  0.00000000E+00  0.00000000E+00  0.00000000E+00
  0.00000000E+00  0.00000000E+00  1.43217305E-04  0.00000000E+00  0.00000000E+00
  8.03940433E-01  0.00000000E+00  0.00000000E+00 -2.74728000E-01  0.00000000E+00
  0.00000000E+00  5.13223501E-02  0.00000000E+00  0.00000000E+00 -6.29222315E-04
  0.00000000E+00  0.00000000E+00 -1.99316289E-04  0.00000000E+00  0.00000000E+00
  0.00000000E+00  0.00000000E+00  0.00000000E+00  0.00000000E+00  0.00000000E+00
  0.00000000E+00  0.00000000E+00  0.00000000E+00  0.00000000E+00  0.00000000E+00
  0.00000000E+00  0.00000000E+00  0.00000000E+00  0.00000000E+00  1.43217305E-04
  0.00000000E+00  0.00000000E+00  8.03940433E-01  0.00000000E+00  0.00000000E+00
 -2.74728000E-01  0.00000000E+00  0.00000000E+00  5.13223501E-02  0.00000000E+00
  0.00000000E+00 -6.29222315E-04  0.00000000E+00  0.00000000E+00 -1.99316289E-04
  0.00000000E+00  0.00000000E+00  0.00000000E+00  0.00000000E+00  0.00000000E+00
  4.17386515E-02  1.19083566E-01 -2.36663041E-01 -4.79092771E-01  8.38177122E-01
  4.31918827E-01 -3.81310731E-02  0.00000000E+00  0.00000000E+00  0.00000000E+00
  0.00000000E+00  0.00000000E+00  0.00000000E+00  0.00000000E+00  0.00000000E+00
  0.00000000E+00  0.00000000E+00  0.00000000E+00  0.00000000E+00  0.00000000E+00
  0.00000000E+00  0.00000000E+00  0.00000000E+00  0.00000000E+00  0.00000000E+00
 -5.88074338E-16  0.00000000E+00  0.00000000E+00  2.23325263E-16  0.00000000E+00
  0.00000000E+00  0.00000000E+00  0.00000000E+00  0.00000000E+00  0.00000000E+00
  0.00000000E+00  0.00000000E+00 -2.76217916E-02  0.00000000E+00  0.00000000E+00
 -2.72205573E-01  0.00000000E+00  0.00000000E+00  9.98263700E-02  0.00000000E+00
  0.00000000E+00  3.48072576E-01  0.00000000E+00  0.00000000E+00  6.80772537E-01
  0.00000000E+00  0.00000000E+00  1.37760660E-01  0.00000000E+00  0.00000000E+00
  0.00000000E+00  0.00000000E+00  0.00000000E+00  0.00000000E+00  0.00000000E+00
  0.00000000E+00  0.00000000E+00  0.00000000E+00  0.00000000E+00  0.00000000E+00
  0.00000000E+00  0.00000000E+00  0.00000000E+00  0.00000000E+00 -2.76217916E-02
  0.00000000E+00  0.00000000E+00 -2.72205573E-01  0.00000000E+00  0.00000000E+00
  9.98263700E-02  0.00000000E+00  0.00000000E+00  3.48072576E-01  0.00000000E+00
  0.00000000E+00  6.80772537E-01  0.00000000E+00  0.00000000E+00  1.37760660E-01
  0.00000000E+00  0.00000000E+00  0.00000000E+00  0.00000000E+00  0.00000000E+00
  0.00000000E+00  0.00000000E+00  0.00000000E+00  0.00000000E+00  0.00000000E+00
  0.00000000E+00  0.00000000E+00  0.00000000E+00 -2.76217916E-02  0.00000000E+00
  0.00000000E+00 -2.72205573E-01  0.00000000E+00  0.00000000E+00  9.98263700E-02
  0.00000000E+00  0.00000000E+00  3.48072576E-01  0.00000000E+00  0.00000000E+00
  6.80772537E-01  0.00000000E+00  0.00000000E+00  1.37760660E-01  0.00000000E+00
  0.00000000E+00  0.00000000E+00  0.00000000E+00  0.00000000E+00  0.00000000E+00
 -1.65118412E-02 -4.70354581E-02  9.28479265E-02  2.34889686E-01 -6.69580250E-01
 -1.10510036E-01  1.14534308E+00  0.00000000E+00  0.00000000E+00  0.00000000E+00
  0.00000000E+00  0.00000000E+00  0.00000000E+00  0.00000000E+00  0.00000000E+00
  0.00000000E+00  0.00000000E+00  0.00000000E+00  0.00000000E+00  0.00000000E+00
  0.00000000E+00  0.00000000E+00  0.00000000E+00  0.00000000E+00  0.00000000E+00
 -5.07774828E-16  0.00000000E+00  0.00000000E+00  1.20537988E-15  0.00000000E+00
  0.00000000E+00  0.00000000E+00  0.00000000E+00  0.00000000E+00  0.00000000E+00
  0.00000000E+00  0.00000000E+00  0.00000000E+00  0.00000000E+00  7.36162373E-01
  0.00000000E+00  0.00000000E+00  1.05915651E-01  0.00000000E+00  0.00000000E+00
 -3.93938022E-02  0.00000000E+00  0.00000000E+00 -1.74211691E-01  0.00000000E+00
  0.00000000E+00 -3.73542705E-01  0.00000000E+00  0.00000000E+00  3.95281196E-01
  0.00000000E+00  0.00000000E+00  0.00000000E+00  0.00000000E+00  0.00000000E+00
  0.00000000E+00  0.00000000E+00  0.00000000E+00  0.00000000E+00  0.00000000E+00
  0.00000000E+00  0.00000000E+00  7.36162373E-01  0.00000000E+00  0.00000000E+00
  1.05915651E-01  0.00000000E+00  0.00000000E+00 -3.93938022E-02  0.00000000E+00
  0.00000000E+00 -1.74211691E-01  0.00000000E+00  0.00000000E+00 -3.73542705E-01
  0.00000000E+00  0.00000000E+00  3.95281196E-01  0.00000000E+00  0.00000000E+00
  0.00000000E+00  0.00000000E+00  0.00000000E+00  0.00000000E+00  0.00000000E+00
  0.00000000E+00  0.00000000E+00  0.00000000E+00  0.00000000E+00  0.00000000E+00
  0.00000000E+00  0.00000000E+00  0.00000000E+00  7.36162373E-01  0.00000000E+00
  0.00000000E+00  1.05915651E-01  0.00000000E+00  0.00000000E+00 -3.93938022E-02
  0.00000000E+00  0.00000000E+00 -1.74211691E-01  0.00000000E+00  0.00000000E+00
 -3.73542705E-01  0.00000000E+00  0.00000000E+00  3.95281196E-01  0.00000000E+00
  0.00000000E+00  0.00000000E+00  0.00000000E+00  0.00000000E+00  0.00000000E+00
  0.00000000E+00  0.00000000E+00  0.00000000E+00  0.00000000E+00  0.00000000E+00
  0.00000000E+00  0.00000000E+00  0.00000000E+00  0.00000000E+00  0.00000000E+00
  0.00000000E+00  0.00000000E+00  0.00000000E+00  0.00000000E+00  0.00000000E+00
  0.00000000E+00  0.00000000E+00  0.00000000E+00  0.00000000E+00  0.00000000E+00
  0.00000000E+00  0.00000000E+00  0.00000000E+00  0.00000000E+00  0.00000000E+00
  0.00000000E+00  0.00000000E+00  1.00000000E+00  0.00000000E+00  0.00000000E+00
  0.00000000E+00  0.00000000E+00  0.00000000E+00  0.00000000E+00  0.00000000E+00
  0.00000000E+00  0.00000000E+00  0.00000000E+00  0.00000000E+00  0.00000000E+00
  0.00000000E+00  0.00000000E+00  0.00000000E+00  0.00000000E+00  0.00000000E+00
  0.00000000E+00  0.00000000E+00  0.00000000E+00  0.00000000E+00  0.00000000E+00
  0.00000000E+00  0.00000000E+00  0.00000000E+00  0.00000000E+00  0.00000000E+00
  0.00000000E+00  1.00000000E+00  0.00000000E+00  0.00000000E+00  0.00000000E+00
  0.00000000E+00  0.00000000E+00  0.00000000E+00  0.00000000E+00  0.00000000E+00
  0.00000000E+00  0.00000000E+00  0.00000000E+00  0.00000000E+00  0.00000000E+00
  0.00000000E+00  0.00000000E+00  0.00000000E+00  0.00000000E+00  0.00000000E+00
  0.00000000E+00  0.00000000E+00  0.00000000E+00  0.00000000E+00  0.00000000E+00
  0.00000000E+00  0.00000000E+00  0.00000000E+00  0.00000000E+00  0.00000000E+00
  0.00000000E+00  0.00000000E+00  0.00000000E+00  0.00000000E+00  1.00000000E+00
 -2.07371361E-17 -1.57484521E-16  8.33114295E-16 -1.12841717E-15  5.72694773E-16
  2.92307326E-16 -5.06638590E-16  0.00000000E+00  0.00000000E+00  0.00000000E+00
  0.00000000E+00  0.00000000E+00  0.00000000E+00  0.00000000E+00  0.00000000E+00
  0.00000000E+00  0.00000000E+00  0.00000000E+00  0.00000000E+00  0.00000000E+00
  0.00000000E+00  0.00000000E+00  0.00000000E+00  0.00000000E+00  0.00000000E+00
  8.78766418E-01  0.00000000E+00  0.00000000E+00  4.77252116E-01  0.00000000E+00
  6.45709648E-17  2.00009032E-16 -4.71982848E-16 -8.33006245E-16  3.91348080E-15
 -3.91581434E-15  2.47566071E-16  0.00000000E+00  0.00000000E+00  0.00000000E+00
  0.00000000E+00  0.00000000E+00  0.00000000E+00  0.00000000E+00  0.00000000E+00
  0.00000000E+00  0.00000000E+00  0.00000000E+00  0.00000000E+00  0.00000000E+00
  0.00000000E+00  0.00000000E+00  0.00000000E+00  0.00000000E+00  0.00000000E+00
 -4.77252116E-01  0.00000000E+00  0.00000000E+00  8.78766418E-01  0.00000000E+00
  0.00000000E+00  0.00000000E+00  0.00000000E+00  0.00000000E+00  0.00000000E+00
  0.00000000E+00  0.00000000E+00 -1.75225571E+00  0.00000000E+00  0.00000000E+00
  1.18277462E-01  0.00000000E+00  0.00000000E+00 -4.83095333E-02  0.00000000E+00
  0.00000000E+00 -1.76015214E-01  0.00000000E+00  0.00000000E+00 -6.78180237E-01
  0.00000000E+00  0.00000000E+00  2.19942816E+00  0.00000000E+00  0.00000000E+00
  0.00000000E+00  0.00000000E+00  0.00000000E+00  0.00000000E+00  0.00000000E+00
  0.00000000E+00  0.00000000E+00  0.00000000E+00  0.00000000E+00  0.00000000E+00
  0.00000000E+00  0.00000000E+00  0.00000000E+00 -1.75225571E+00  0.00000000E+00
  0.00000000E+00  1.18277462E-01  0.00000000E+00  0.00000000E+00 -4.83095333E-02
  0.00000000E+00  0.00000000E+00 -1.76015214E-01  0.00000000E+00  0.00000000E+00
 -6.78180237E-01  0.00000000E+00  0.00000000E+00  2.19942816E+00  0.00000000E+00
  0.00000000E+00  0.00000000E+00  0.00000000E+00  0.00000000E+00  0.00000000E+00
  0.00000000E+00  0.00000000E+00  0.00000000E+00  0.00000000E+00  0.00000000E+00
  0.00000000E+00  0.00000000E+00  0.00000000E+00  0.00000000E+00 -1.75225571E+00
  0.00000000E+00  0.00000000E+00  1.18277462E-01  0.00000000E+00  0.00000000E+00
 -4.83095333E-02  0.00000000E+00  0.00000000E+00 -1.76015214E-01  0.00000000E+00
  0.00000000E+00 -6.78180237E-01  0.00000000E+00  0.00000000E+00  2.19942816E+00
  0.00000000E+00  0.00000000E+00  0.00000000E+00  0.00000000E+00  0.00000000E+00
 -3.11905498E-02 -8.63977046E-02  1.48464527E-01  5.70818825E-01 -2.26046123E+00
  2.73720111E+00 -1.24448813E+00  0.00000000E+00  0.00000000E+00  0.00000000E+00
  0.00000000E+00  0.00000000E+00  0.00000000E+00  0.00000000E+00  0.00000000E+00
  0.00000000E+00  0.00000000E+00  0.00000000E+00  0.00000000E+00  0.00000000E+00
  0.00000000E+00  0.00000000E+00  0.00000000E+00  0.00000000E+00  0.00000000E+00
 -2.19975953E-15  0.00000000E+00  0.00000000E+00  1.02275751E-15  0.00000000E+00
  0.00000000E+00  0.00000000E+00  0.00000000E+00  0.00000000E+00  0.00000000E+00
  0.00000000E+00  0.00000000E+00  6.44610657E-01  0.00000000E+00  0.00000000E+00
  4.80944203E-01  0.00000000E+00  0.00000000E+00 -1.22706345E-01  0.00000000E+00
  0.00000000E+00 -1.93991569E+00  0.00000000E+00  0.00000000E+00  2.18863980E+00
  0.00000000E+00  0.00000000E+00 -1.39708762E+00  0.00000000E+00  0.00000000E+00
  0.00000000E+00  0.00000000E+00  0.00000000E+00  0.00000000E+00  0.00000000E+00
  0.00000000E+00  0.00000000E+00  0.00000000E+00  0.00000000E+00  0.00000000E+00
  0.00000000E+00  0.00000000E+00  0.00000000E+00  6.44610657E-01  0.00000000E+00
  0.00000000E+00  4.80944203E-01  0.00000000E+00  0.00000000E+00 -1.22706345E-01
  0.00000000E+00  0.00000000E+00 -1.93991569E+00  0.00000000E+00  0.00000000E+00
  2.18863980E+00  0.00000000E+00  0.00000000E+00 -1.39708762E+00  0.00000000E+00
  0.00000000E+00  0.00000000E+00  0.00000000E+00  0.00000000E+00  0.00000000E+00
  0.00000000E+00  0.00000000E+00  0.00000000E+00  0.00000000E+00  0.00000000E+00
  0.00000000E+00  0.00000000E+00  0.00000000E+00  0.00000000E+00  6.44610657E-01
  0.00000000E+00  0.00000000E+00  4.80944203E-01  0.00000000E+00  0.00000000E+00
 -1.22706345E-01  0.00000000E+00  0.00000000E+00 -1.93991569E+00  0.00000000E+00
  0.00000000E+00  2.18863980E+00  0.00000000E+00  0.00000000E+00 -1.39708762E+00
  0.00000000E+00  0.00000000E+00  0.00000000E+00  0.00000000E+00  0.00000000E+00
  1.18020699E-01  4.79395492E-01 -2.63902959E+00  3.08045733E+00 -1.70306992E+00
  9.33999044E-01 -2.59693104E-01  0.00000000E+00  0.00000000E+00  0.00000000E+00
  0.00000000E+00  0.00000000E+00  0.00000000E+00  0.00000000E+00  0.00000000E+00
  0.00000000E+00  0.00000000E+00  0.00000000E+00  0.00000000E+00  0.00000000E+00
  0.00000000E+00  0.00000000E+00  0.00000000E+00  0.00000000E+00  0.00000000E+00
 -5.27515464E-16  0.00000000E+00  0.00000000E+00  2.47165262E-16  0.00000000E+00
  0.00000000E+00  0.00000000E+00  0.00000000E+00  0.00000000E+00  0.00000000E+00
  0.00000000E+00  0.00000000E+00 -2.56963284E-01  0.00000000E+00  0.00000000E+00
 -2.21918307E+00  0.00000000E+00  0.00000000E+00 -1.76427530E+00  0.00000000E+00
  0.00000000E+00  2.40880710E+00  0.00000000E+00  0.00000000E+00 -1.24259996E+00
  0.00000000E+00  0.00000000E+00  5.78974615E-01  0.00000000E+00  0.00000000E+00
  0.00000000E+00  0.00000000E+00  0.00000000E+00  0.00000000E+00  0.00000000E+00
  0.00000000E+00  0.00000000E+00  0.00000000E+00  0.00000000E+00  0.00000000E+00
  0.00000000E+00  0.00000000E+00  0.00000000E+00 -2.56963284E-01  0.00000000E+00
  0.00000000E+00 -2.21918307E+00  0.00000000E+00  0.00000000E+00 -1.76427530E+00
  0.00000000E+00  0.00000000E+00  2.40880710E+00  0.00000000E+00  0.00000000E+00
 -1.24259996E+00  0.00000000E+00  0.00000000E+00  5.78974615E-01  0.00000000E+00
  0.00000000E+00  0.00000000E+00  0.00000000E+00  0.00000000E+00  0.00000000E+00
  0.00000000E+00  0.00000000E+00  0.00000000E+00  0.00000000E+00  0.00000000E+00
  0.00000000E+00  0.00000000E+00  0.00000000E+00  0.00000000E+00 -2.56963284E-01
  0.00000000E+00  0.00000000E+00 -2.21918307E+00  0.00000000E+00  0.00000000E+00
 -1.76427530E+00  0.00000000E+00  0.00000000E+00  2.40880710E+00  0.00000000E+00
  0.00000000E+00 -1.24259996E+00  0.00000000E+00  0.00000000E+00  5.78974615E-01
  0.00000000E+00  0.00000000E+00  0.00000000E+00  0.00000000E+00  0.00000000E+00
 -1.54160206E+00  1.91465514E+00 -1.43624524E+00  9.57676922E-01 -3.79294795E-01
  1.99590446E-01 -5.55328263E-02  0.00000000E+00  0.00000000E+00  0.00000000E+00
  0.00000000E+00  0.00000000E+00  0.00000000E+00  0.00000000E+00  0.00000000E+00
  0.00000000E+00  0.00000000E+00  0.00000000E+00  0.00000000E+00  0.00000000E+00
  0.00000000E+00  0.00000000E+00  0.00000000E+00  0.00000000E+00  0.00000000E+00
 -2.83442026E-16  0.00000000E+00  0.00000000E+00  8.77964875E-18  0.00000000E+00
Beta MO coefficients                       R   N=         900
  4.11846351E-01  6.53991917E-01  1.45229658E-02 -3.51989632E-03  1.16777644E-03
 -6.00078890E-04  1.66039257E-04  0.00000000E+00  0.00000000E+00  0.00000000E+00
  0.00000000E+00  0.00000000E+00  0.00000000E+00  0.00000000E+00  0.00000000E+00
  0.00000000E+00  0.00000000E+00  0.00000000E+00  0.00000000E+00  0.00000000E+00
  0.00000000E+00  0.00000000E+00  0.00000000E+00  0.00000000E+00  0.00000000E+00
  1.28782037E-16  0.00000000E+00  0.00000000E+00 -9.97473450E-17  0.00000000E+00
 -1.21914369E-01 -3.28011258E-01  5.00530018E-01  6.12117732E-01  4.94222604E-02
 -1.48689880E-02  3.62590736E-03  0.00000000E+00  0.00000000E+00  0.00000000E+00
  0.00000000E+00  0.00000000E+00  0.00000000E+00  0.00000000E+00  0.00000000E+00
  0.00000000E+00  0.00000000E+00  0.00000000E+00  0.00000000E+00  0.00000000E+00
  0.00000000E+00  0.00000000E+00  0.00000000E+00  0.00000000E+00  0.00000000E+00
  1.17858416E-16  0.00000000E+00  0.00000000E+00 -6.59472689E-16  0.00000000E+00
  0.00000000E+00  0.00000000E+00  0.00000000E+00  0.00000000E+00  0.00000000E+00
  0.00000000E+00  0.00000000E+00  0.00000000E+00  0.00000000E+00 -2.80486465E-04
  0.00000000E+00  0.00000000E+00  8.04008386E-01  0.00000000E+00  0.00000000E+00
 -2.74566400E-01  0.00000000E+00  0.00000000E+00  5.21412766E-02  0.00000000E+00
  0.00000000E+00 -2.47795408E-03  0.00000000E+00  0.00000000E+00  7.23531958E-04
  0.00000000E+00  0.00000000E+00  0.00000000E+00  0.00000000E+00  0.00000000E+00
  0.00000000E+00  0.00000000E+00  0.00000000E+00  0.00000000E+00  0.00000000E+00
  0.00000000E+00  0.00000000E+00  0.00000000E+00 -2.80486465E-04  0.00000000E+00
  0.00000000E+00  8.04008386E-01  0.00000000E+00  0.00000000E+00 -2.74566400E-01
  0.00000000E+00  0.00000000E+00  5.21412766E-02  0.00000000E+00  0.00000000E+00
 -2.47795408E-03  0.00000000E+00  0.00000000E+00  7.23531958E-04  0.00000000E+00
  0.00000000E+00  0.00000000E+00  0.00000000E+00  0.00000000E+00  0.00000000E+00
  0.00000000E+00  0.00000000E+00  0.00000000E+00  0.00000000E+00  0.00000000E+00
  0.00000000E+00  0.00000000E+00 -2.80486465E-04  0.00000000E+00  0.00000000E+00
  8.04008386E-01  0.00000000E+00  0.00000000E+00 -2.74566400E-01  0.00000000E+00
  0.00000000E+00  5.21412766E-02  0.00000000E+00  0.00000000E+00 -2.47795408E-03
  0.00000000E+00  0.00000000E+00  7.23531958E-04  0.00000000E+00  0.00000000E+00
  0.00000000E+00  0.00000000E+00  0.00000000E+00  0.00000000E+00  0.00000000E+00
  4.14711196E-02  1.19288772E-01 -2.45327653E-01 -4.55723613E-01  8.03035258E-01
  4.55673926E-01 -3.21870489E-02  0.00000000E+00  0.00000000E+00  0.00000000E+00
  0.00000000E+00  0.00000000E+00  0.00000000E+00  0.00000000E+00  0.00000000E+00
  0.00000000E+00  0.00000000E+00  0.00000000E+00  0.00000000E+00  0.00000000E+00
  0.00000000E+00  0.00000000E+00  0.00000000E+00  0.00000000E+00  0.00000000E+00
 -6.31893025E-16  0.00000000E+00  0.00000000E+00  2.42884070E-17  0.00000000E+00
  0.00000000E+00  0.00000000E+00  0.00000000E+00  0.00000000E+00  0.00000000E+00
  0.00000000E+00  0.00000000E+00 -4.53573774E-02  0.00000000E+00  0.00000000E+00
 -2.57449128E-01  0.00000000E+00  0.00000000E+00  9.79552123E-02  0.00000000E+00
  0.00000000E+00  3.22441133E-01  0.00000000E+00  0.00000000E+00  6.50921442E-01
  0.00000000E+00  0.00000000E+00  2.19867876E-01  0.00000000E+00  0.00000000E+00
  0.00000000E+00  0.00000000E+00  0.00000000E+00  0.00000000E+00  0.00000000E+00
  0.00000000E+00  0.00000000E+00  0.00000000E+00  0.00000000E+00  0.00000000E+00
  0.00000000E+00  0.00000000E+00  0.00000000E+00 -4.53573774E-02  0.00000000E+00
  0.00000000E+00 -2.57449128E-01  0.00000000E+00  0.00000000E+00  9.79552123E-02
  0.00000000E+00  0.00000000E+00  3.22441133E-01  0.00000000E+00  0.00000000E+00
  6.50921442E-01  0.00000000E+00  0.00000000E+00  2.19867876E-01  0.00000000E+00