fubar                                                                   
SP        UPBE1PBE                                                    6-311+G(d,p)        
Number of atoms                            I                1
Info1-9                                    I   N=           9
          11          10           0           0           0         110
           1          18       -1302
Full Title                                 C   N=           1
fubar       
Route                                      C   N=           3
#PBE1PBE/6-311+G(d,p) scf=tight     
Charge                                     I               -1
Multiplicity                               I                2
Number of electrons                        I                9
Number of alpha electrons                  I                5
Number of beta electrons                   I                4
Number of basis functions                  I               22
Number of independent functions            I               22
Number of point charges in /Mol/           I                0
Number of translation vectors              I                0
Atomic numbers                             I   N=           1
           8
Nuclear charges                            R   N=           1
  8.00000000E+00
Current cartesian coordinates              R   N=           3
  0.00000000E+00  0.00000000E+00  0.00000000E+00
Number of symbols in /Mol/                 I                0
Int Atom Types                             I   N=           1
           0
Force Field                                I                0
Atom Types                                 C   N=           1
            
MM charges                                 R   N=           1
  0.00000000E+00
Integer atomic weights                     I   N=           1
          16
Real atomic weights                        R   N=           1
  1.59949146E+01
Atom fragment info                         I   N=           1
           0
Atom residue num                           I   N=           1
           0
Nuclear spins                              I   N=           1
           0
Nuclear ZEff                               R   N=           1
 -5.60000000E+00
Nuclear ZNuc                               R   N=           1
  8.00000000E+00
Nuclear QMom                               R   N=           1
  0.00000000E+00
Nuclear GFac                               R   N=           1
  0.00000000E+00
MicOpt                                     I   N=           1
          -1
Number of residues                         I                0
Number of secondary structures             I                0
SymInf integers                            I   N=          26
           1           8           1           1           1           1
          -1          -1          -1           1          -1          -1
          -1           1          -1          -1          -1          -1
           1           1           1          -1           1           1
           1          -1
RotTr to input orientation                 R   N=          12
  0.00000000E+00  0.00000000E+00 -1.00000000E+00  0.00000000E+00  1.00000000E+00
  0.00000000E+00  1.00000000E+00  0.00000000E+00  0.00000000E+00  0.00000000E+00
  0.00000000E+00  0.00000000E+00
Number of contracted shells                I                6
Number of primitive shells                 I               13
Pure/Cartesian d shells                    I                0
Pure/Cartesian f shells                    I                0
Highest angular momentum                   I                2
Largest degree of contraction              I                6
Shell types                                I   N=           6
           0          -1          -1          -1          -1          -2
Number of primitives per shell             I   N=           6
           6           3           1           1           1           1
Shell to atom map                          I   N=           6
           1           1           1           1           1           1
Primitive exponents                        R   N=          13
  8.58850000E+03  1.29723000E+03  2.99296000E+02  8.73771000E+01  2.56789000E+01
  3.74004000E+00  4.21175000E+01  9.62837000E+00  2.85332000E+00  9.05661000E-01
  2.55611000E-01  8.45000000E-02  1.29200000E+00
Contraction coefficients                   R   N=          13
  1.89515008E-03  1.43859006E-02  7.07320031E-02  2.40001011E-01  5.94797026E-01
  2.80802012E-01  1.13889012E-01  9.20811101E-01 -3.27447036E-03  1.00000000E+00
  1.00000000E+00  1.00000000E+00  1.00000000E+00
P(S=P) Contraction coefficients            R   N=          13
  0.00000000E+00  0.00000000E+00  0.00000000E+00  0.00000000E+00  0.00000000E+00
  0.00000000E+00  3.65113974E-02  2.37152983E-01  8.19701941E-01  1.00000000E+00
  1.00000000E+00  1.00000000E+00  0.00000000E+00
Coordinates of each shell                  R   N=          18
  0.00000000E+00  0.00000000E+00  0.00000000E+00  0.00000000E+00  0.00000000E+00
  0.00000000E+00  0.00000000E+00  0.00000000E+00  0.00000000E+00  0.00000000E+00
  0.00000000E+00  0.00000000E+00  0.00000000E+00  0.00000000E+00  0.00000000E+00
  0.00000000E+00  0.00000000E+00  0.00000000E+00
Num ILSW                                   I              100
ILSW                                       I   N=         100
           1           0           0           0           2           0
           0           0           0           0        1009          -1
           5           0           0           0           0           0
           0           0           0           0           0           0
           1           0           0           0           0           0
           0           0      100000           0          -1           0
           0           0           0           0           0           0
           0           0           0           1           0           0
           0 -2000000000           1           0           0           0
           0           1           4          52           0           0
           0           0          13           0           0           0
           0           0           0           1           0           1
           0           0           0           0           0           0
           0           0           0           0           0           0
           0           0           0           0           0           0
           0           0           0           0           0           0
           0           0           0           0
Num RLSW                                   I               52
RLSW                                       R   N=          52
  7.50000000E-01  7.50000000E-01  1.00000000E+00  1.00000000E+00  2.50000000E-01
  0.00000000E+00  0.00000000E+00  1.00000000E+00  0.00000000E+00  0.00000000E+00
  0.00000000E+00  0.00000000E+00  1.00000000E+00  0.00000000E+00  0.00000000E+00
  0.00000000E+00  0.00000000E+00  1.00000000E+00  0.00000000E+00  0.00000000E+00
  0.00000000E+00  0.00000000E+00  1.00000000E+00  0.00000000E+00  0.00000000E+00
  0.00000000E+00  0.00000000E+00  1.00000000E+00  0.00000000E+00  0.00000000E+00
  0.00000000E+00  0.00000000E+00  1.00000000E+00  0.00000000E+00  0.00000000E+00
  0.00000000E+00  0.00000000E+00  0.00000000E+00  1.00000000E+00  1.00000000E+00
  0.00000000E+00  1.00000000E+00  0.00000000E+00  0.00000000E+00  0.00000000E+00
  0.00000000E+00  0.00000000E+00  0.00000000E+00  0.00000000E+00  0.00000000E+00
  0.00000000E+00  0.00000000E+00
MxBond                                     I                1
NBond                                      I   N=           1
           0
IBond                                      I   N=           1
           0
RBond                                      R   N=           1
  0.00000000E+00
Virial Ratio                               R      2.002049773725673E+00
SCF Energy                                 R     -7.506045869123813E+01
Total Energy                               R     -7.506045869123813E+01
S**2                                       R      7.543101630228435E-01
S**2 after annihilation                    R      7.500135349546713E-01
RMS Density                                R      8.623971357775524E-09
Job Status                                 I                1
Nuclear derivative order                   I                0
External E-field                           R   N=          35
  0.00000000E+00  0.00000000E+00  0.00000000E+00  0.00000000E+00  0.00000000E+00
  0.00000000E+00  0.00000000E+00  0.00000000E+00  0.00000000E+00  0.00000000E+00
  0.00000000E+00  0.00000000E+00  0.00000000E+00  0.00000000E+00  0.00000000E+00
  0.00000000E+00  0.00000000E+00  0.00000000E+00  0.00000000E+00  0.00000000E+00
  0.00000000E+00  0.00000000E+00  0.00000000E+00  0.00000000E+00  0.00000000E+00
  0.00000000E+00  0.00000000E+00  0.00000000E+00  0.00000000E+00  0.00000000E+00
  0.00000000E+00  0.00000000E+00  0.00000000E+00  0.00000000E+00  0.00000000E+00
IOpCl                                      I                1
IROHF                                      I                0
Alpha Orbital Energies                     R   N=          22
 -1.88723119E+01 -5.79354899E-01 -4.27965943E-02  2.75623037E-02  2.75623037E-02
  3.49075285E-01  3.82662037E-01  3.98296796E-01  3.98296796E-01  1.29538223E+00
  1.33922402E+00  1.33922402E+00  1.55429027E+00  3.12442196E+00  3.14265503E+00
  3.14265503E+00  3.19983941E+00  3.19983941E+00  5.25358675E+00  5.31767665E+00
  5.31767665E+00  5.01923826E+01
Beta Orbital Energies                      R   N=          22
 -1.88465841E+01 -4.94179321E-01  5.52774997E-02  5.52774997E-02  2.08526208E-01
  3.58465545E-01  4.03350446E-01  4.03350446E-01  4.29571917E-01  1.35428736E+00
  1.35428736E+00  1.38545905E+00  1.59459516E+00  3.21587232E+00  3.21587232E+00
  3.23028288E+00  3.23028288E+00  3.25165962E+00  5.34079588E+00  5.34079588E+00
  5.37036849E+00  5.02158828E+01
Alpha MO coefficients                      R   N=         484
  5.51381153E-01  4.69992959E-01  0.00000000E+00  0.00000000E+00  0.00000000E+00
  1.17026456E-02  0.00000000E+00  0.00000000E+00  0.00000000E+00 -5.22032340E-03
  0.00000000E+00  0.00000000E+00  0.00000000E+00  1.98314741E-03  0.00000000E+00
  0.00000000E+00  0.00000000E+00  3.00397232E-04  0.00000000E+00  0.00000000E+00
 -6.90001063E-17  0.00000000E+00 -1.28065639E-01 -2.07512801E-01  0.00000000E+00
  0.00000000E+00  0.00000000E+00  6.14125768E-01  0.00000000E+00  0.00000000E+00
  0.00000000E+00  4.88335584E-01  0.00000000E+00  0.00000000E+00  0.00000000E+00
  2.84691344E-02  0.00000000E+00  0.00000000E+00  0.00000000E+00  1.58246956E-02
  0.00000000E+00  0.00000000E+00 -2.49959937E-16  0.00000000E+00  0.00000000E+00
  0.00000000E+00  0.00000000E+00  0.00000000E+00  3.01356711E-01  0.00000000E+00
  0.00000000E+00  0.00000000E+00  4.48989240E-01  0.00000000E+00  0.00000000E+00
  0.00000000E+00  3.85403858E-01  0.00000000E+00  0.00000000E+00  0.00000000E+00
  1.42517589E-01  0.00000000E+00  0.00000000E+00  0.00000000E+00  0.00000000E+00
  0.00000000E+00  0.00000000E+00  0.00000000E+00  2.88246572E-01  0.00000000E+00
  0.00000000E+00  0.00000000E+00  4.24527617E-01  0.00000000E+00  0.00000000E+00
  0.00000000E+00  3.75800257E-01  0.00000000E+00  0.00000000E+00  0.00000000E+00
  2.11167477E-01  0.00000000E+00  0.00000000E+00  0.00000000E+00  0.00000000E+00
  0.00000000E+00  0.00000000E+00  0.00000000E+00  0.00000000E+00  0.00000000E+00
  0.00000000E+00  2.88246572E-01  0.00000000E+00  0.00000000E+00  0.00000000E+00
  4.24527617E-01  0.00000000E+00  0.00000000E+00  0.00000000E+00  3.75800257E-01
  0.00000000E+00  0.00000000E+00  0.00000000E+00  2.11167477E-01  0.00000000E+00
  0.00000000E+00  0.00000000E+00  0.00000000E+00  0.00000000E+00  0.00000000E+00
  3.82776757E-02  5.92108403E-02  0.00000000E+00  0.00000000E+00  0.00000000E+00
 -1.05234956E-01  0.00000000E+00  0.00000000E+00  0.00000000E+00 -1.03892725E+00
  0.00000000E+00  0.00000000E+00  0.00000000E+00  1.60364839E+00  0.00000000E+00
  0.00000000E+00  0.00000000E+00 -4.52885464E-03  0.00000000E+00  0.00000000E+00
  6.50588005E-17  0.00000000E+00  0.00000000E+00  0.00000000E+00  0.00000000E+00
  0.00000000E+00 -1.37276081E-01  0.00000000E+00  0.00000000E+00  0.00000000E+00
 -1.21993061E-01  0.00000000E+00  0.00000000E+00  0.00000000E+00 -5.70463876E-01
  0.00000000E+00  0.00000000E+00  0.00000000E+00  1.26261496E+00  0.00000000E+00
  0.00000000E+00  0.00000000E+00  0.00000000E+00  0.00000000E+00  0.00000000E+00
  0.00000000E+00 -1.52612703E-01  0.00000000E+00  0.00000000E+00  0.00000000E+00
 -1.36969233E-01  0.00000000E+00  0.00000000E+00  0.00000000E+00 -6.20083343E-01
  0.00000000E+00  0.00000000E+00  0.00000000E+00  1.26256339E+00  0.00000000E+00
  0.00000000E+00  0.00000000E+00  0.00000000E+00  0.00000000E+00  0.00000000E+00
  0.00000000E+00  0.00000000E+00  0.00000000E+00  0.00000000E+00 -1.52612703E-01
  0.00000000E+00  0.00000000E+00  0.00000000E+00 -1.36969233E-01  0.00000000E+00
  0.00000000E+00  0.00000000E+00 -6.20083343E-01  0.00000000E+00  0.00000000E+00
  0.00000000E+00  1.26256339E+00  0.00000000E+00  0.00000000E+00  0.00000000E+00
  0.00000000E+00  0.00000000E+00  0.00000000E+00  0.00000000E+00  0.00000000E+00
  0.00000000E+00  0.00000000E+00 -2.63446294E-01  0.00000000E+00  0.00000000E+00
  0.00000000E+00 -8.45288659E-01  0.00000000E+00  0.00000000E+00  0.00000000E+00
  1.62559692E+00  0.00000000E+00  0.00000000E+00  0.00000000E+00 -7.50244663E-01
  0.00000000E+00  0.00000000E+00  0.00000000E+00  0.00000000E+00  0.00000000E+00
  0.00000000E+00  0.00000000E+00 -2.66962400E-01  0.00000000E+00  0.00000000E+00
  0.00000000E+00 -8.59513878E-01  0.00000000E+00  0.00000000E+00  0.00000000E+00
  1.61236605E+00  0.00000000E+00  0.00000000E+00  0.00000000E+00 -7.34962561E-01
  0.00000000E+00  0.00000000E+00  0.00000000E+00  0.00000000E+00  0.00000000E+00
  0.00000000E+00  0.00000000E+00  0.00000000E+00  0.00000000E+00  0.00000000E+00
 -2.66962400E-01  0.00000000E+00  0.00000000E+00  0.00000000E+00 -8.59513878E-01
  0.00000000E+00  0.00000000E+00  0.00000000E+00  1.61236605E+00  0.00000000E+00
  0.00000000E+00  0.00000000E+00 -7.34962561E-01  0.00000000E+00  0.00000000E+00
  0.00000000E+00  0.00000000E+00  0.00000000E+00  0.00000000E+00  1.25854681E-01
  2.50135017E-01  0.00000000E+00  0.00000000E+00  0.00000000E+00 -1.80466198E+00
  0.00000000E+00  0.00000000E+00  0.00000000E+00  2.46388607E+00  0.00000000E+00
  0.00000000E+00  0.00000000E+00 -1.07459294E+00  0.00000000E+00  0.00000000E+00
  0.00000000E+00 -7.48867563E-03  0.00000000E+00  0.00000000E+00  6.60784738E-16
  0.00000000E+00  3.38788015E-03  4.85884425E-03  0.00000000E+00  0.00000000E+00
  0.00000000E+00 -2.36713879E-02  0.00000000E+00  0.00000000E+00  0.00000000E+00
  5.97904881E-03  0.00000000E+00  0.00000000E+00  0.00000000E+00 -1.21922203E-03
  0.00000000E+00  0.00000000E+00  0.00000000E+00  9.99836419E-01  0.00000000E+00
  0.00000000E+00 -3.41422762E-16  0.00000000E+00  0.00000000E+00  0.00000000E+00
  0.00000000E+00  0.00000000E+00  0.00000000E+00  0.00000000E+00  0.00000000E+00
  0.00000000E+00  0.00000000E+00  0.00000000E+00  0.00000000E+00  0.00000000E+00
  0.00000000E+00  0.00000000E+00  0.00000000E+00  0.00000000E+00  0.00000000E+00
  0.00000000E+00  1.00000000E+00  0.00000000E+00  0.00000000E+00  0.00000000E+00
  0.00000000E+00  0.00000000E+00  0.00000000E+00  0.00000000E+00  0.00000000E+00
  0.00000000E+00  0.00000000E+00  0.00000000E+00  0.00000000E+00  0.00000000E+00
  0.00000000E+00  0.00000000E+00  0.00000000E+00  0.00000000E+00  0.00000000E+00
  0.00000000E+00  0.00000000E+00  0.00000000E+00  0.00000000E+00  1.00000000E+00
  0.00000000E+00  0.00000000E+00  0.00000000E+00  0.00000000E+00  0.00000000E+00
  0.00000000E+00  0.00000000E+00  0.00000000E+00  0.00000000E+00  0.00000000E+00
  0.00000000E+00  0.00000000E+00  0.00000000E+00  0.00000000E+00  0.00000000E+00
  0.00000000E+00  0.00000000E+00  0.00000000E+00  0.00000000E+00  0.00000000E+00
  0.00000000E+00  0.00000000E+00  0.00000000E+00  1.00000000E+00 -1.13558102E-16
 -1.28712475E-16  0.00000000E+00  0.00000000E+00  0.00000000E+00  7.79201387E-16
  0.00000000E+00  0.00000000E+00  0.00000000E+00 -4.16001904E-16  0.00000000E+00
  0.00000000E+00  0.00000000E+00 -3.94465565E-16  0.00000000E+00  0.00000000E+00
  0.00000000E+00  5.45567931E-16  0.00000000E+00  0.00000000E+00  1.00000000E+00
  0.00000000E+00  0.00000000E+00  0.00000000E+00  0.00000000E+00  0.00000000E+00
 -1.27421681E+00  0.00000000E+00  0.00000000E+00  0.00000000E+00  1.51194401E+00
  0.00000000E+00  0.00000000E+00  0.00000000E+00 -8.40875278E-01  0.00000000E+00
  0.00000000E+00  0.00000000E+00  3.05036031E-01  0.00000000E+00  0.00000000E+00
  0.00000000E+00  0.00000000E+00  0.00000000E+00  0.00000000E+00  0.00000000E+00
 -1.27477346E+00  0.00000000E+00  0.00000000E+00  0.00000000E+00  1.50970622E+00
  0.00000000E+00  0.00000000E+00  0.00000000E+00 -8.35552690E-01  0.00000000E+00
  0.00000000E+00  0.00000000E+00  3.02644773E-01  0.00000000E+00  0.00000000E+00
  0.00000000E+00  0.00000000E+00  0.00000000E+00  0.00000000E+00  0.00000000E+00
  0.00000000E+00  0.00000000E+00  0.00000000E+00 -1.27477346E+00  0.00000000E+00
  0.00000000E+00  0.00000000E+00  1.50970622E+00  0.00000000E+00  0.00000000E+00
  0.00000000E+00 -8.35552690E-01  0.00000000E+00  0.00000000E+00  0.00000000E+00
  3.02644773E-01  0.00000000E+00  0.00000000E+00  0.00000000E+00  0.00000000E+00
  0.00000000E+00  0.00000000E+00 -2.24593500E+00  2.33023974E+00  0.00000000E+00
  0.00000000E+00  0.00000000E+00 -2.48791701E-01  0.00000000E+00  0.00000000E+00
  0.00000000E+00  2.28841398E-01  0.00000000E+00  0.00000000E+00  0.00000000E+00
 -9.12334932E-02  0.00000000E+00  0.00000000E+00  0.00000000E+00  1.82783852E-04
  0.00000000E+00  0.00000000E+00 -9.76600164E-18  0.00000000E+00
Beta MO coefficients                       R   N=         484
  5.52064166E-01  4.69825500E-01  0.00000000E+00  0.00000000E+00  0.00000000E+00
  1.01502501E-02  0.00000000E+00  0.00000000E+00  0.00000000E+00 -4.50055699E-03
  0.00000000E+00  0.00000000E+00  0.00000000E+00  1.69479738E-03  0.00000000E+00
  0.00000000E+00  0.00000000E+00 -3.59145876E-04  0.00000000E+00  0.00000000E+00
  9.71248748E-17  0.00000000E+00 -1.25819675E-01 -2.02904701E-01  0.00000000E+00
  0.00000000E+00  0.00000000E+00  5.92274882E-01  0.00000000E+00  0.00000000E+00
  0.00000000E+00  4.96539332E-01  0.00000000E+00  0.00000000E+00  0.00000000E+00
  4.57148942E-02  0.00000000E+00  0.00000000E+00  0.00000000E+00 -8.54635823E-03
  0.00000000E+00  0.00000000E+00  2.00998872E-16  0.00000000E+00  0.00000000E+00
  0.00000000E+00  2.79020165E-01  0.00000000E+00  0.00000000E+00  0.00000000E+00
  4.10324292E-01  0.00000000E+00  0.00000000E+00  0.00000000E+00  3.67652624E-01
  0.00000000E+00  0.00000000E+00  0.00000000E+00  2.52848133E-01  0.00000000E+00
  0.00000000E+00  0.00000000E+00  0.00000000E+00  0.00000000E+00  0.00000000E+00
  0.00000000E+00  0.00000000E+00  0.00000000E+00  0.00000000E+00  2.79020165E-01
  0.00000000E+00  0.00000000E+00  0.00000000E+00  4.10324292E-01  0.00000000E+00
  0.00000000E+00  0.00000000E+00  3.67652624E-01  0.00000000E+00  0.00000000E+00
  0.00000000E+00  2.52848133E-01  0.00000000E+00  0.00000000E+00  0.00000000E+00
  0.00000000E+00  0.00000000E+00  0.00000000E+00  0.00000000E+00  0.00000000E+00
  0.00000000E+00  0.00000000E+00  2.32322413E-01  0.00000000E+00  0.00000000E+00
  0.00000000E+00  3.56288712E-01  0.00000000E+00  0.00000000E+00  0.00000000E+00
  2.88057118E-01  0.00000000E+00  0.00000000E+00  0.00000000E+00  4.57282801E-01
  0.00000000E+00  0.00000000E+00  0.00000000E+00  0.00000000E+00  0.00000000E+00
  3.92968404E-02  6.02212405E-02  0.00000000E+00  0.00000000E+00  0.00000000E+00
 -9.81266456E-02  0.00000000E+00  0.00000000E+00  0.00000000E+00 -1.07237402E+00
  0.00000000E+00  0.00000000E+00  0.00000000E+00  1.61363594E+00  0.00000000E+00
  0.00000000E+00  0.00000000E+00  1.37158897E-03  0.00000000E+00  0.00000000E+00
 -9.16312401E-17  0.00000000E+00  0.00000000E+00  0.00000000E+00 -1.61361898E-01
  0.00000000E+00  0.00000000E+00  0.00000000E+00 -1.47217685E-01  0.00000000E+00
  0.00000000E+00  0.00000000E+00 -6.46395588E-01  0.00000000E+00  0.00000000E+00
  0.00000000E+00  1.25888517E+00  0.00000000E+00  0.00000000E+00  0.00000000E+00
  0.00000000E+00  0.00000000E+00  0.00000000E+00  0.00000000E+00  0.00000000E+00
  0.00000000E+00  0.00000000E+00 -1.61361898E-01  0.00000000E+00  0.00000000E+00
  0.00000000E+00 -1.47217685E-01  0.00000000E+00  0.00000000E+00  0.00000000E+00
 -6.46395588E-01  0.00000000E+00  0.00000000E+00  0.00000000E+00  1.25888517E+00
  0.00000000E+00  0.00000000E+00  0.00000000E+00  0.00000000E+00  0.00000000E+00
  0.00000000E+00  0.00000000E+00  0.00000000E+00  0.00000000E+00  0.00000000E+00
 -1.98318837E-01  0.00000000E+00  0.00000000E+00  0.00000000E+00 -2.00384225E-01
  0.00000000E+00  0.00000000E+00  0.00000000E+00 -7.42474585E-01  0.00000000E+00
  0.00000000E+00  0.00000000E+00  1.21026835E+00  0.00000000E+00  0.00000000E+00
  0.00000000E+00  0.00000000E+00  0.00000000E+00  0.00000000E+00  0.00000000E+00
 -2.68641264E-01  0.00000000E+00  0.00000000E+00  0.00000000E+00 -8.67830006E-01
  0.00000000E+00  0.00000000E+00  0.00000000E+00  1.60536550E+00  0.00000000E+00
  0.00000000E+00  0.00000000E+00 -7.28553191E-01  0.00000000E+00  0.00000000E+00
  0.00000000E+00  0.00000000E+00  0.00000000E+00  0.00000000E+00  0.00000000E+00
  0.00000000E+00  0.00000000E+00  0.00000000E+00 -2.68641264E-01  0.00000000E+00
  0.00000000E+00  0.00000000E+00 -8.67830006E-01  0.00000000E+00  0.00000000E+00
  0.00000000E+00  1.60536550E+00  0.00000000E+00  0.00000000E+00  0.00000000E+00
 -7.28553191E-01  0.00000000E+00  0.00000000E+00  0.00000000E+00  0.00000000E+00
  0.00000000E+00  0.00000000E+00  0.00000000E+00  0.00000000E+00  0.00000000E+00
  0.00000000E+00 -2.74125098E-01  0.00000000E+00  0.00000000E+00  0.00000000E+00
 -8.92499172E-01  0.00000000E+00  0.00000000E+00  0.00000000E+00  1.58279185E+00
  0.00000000E+00  0.00000000E+00  0.00000000E+00 -7.11969149E-01  0.00000000E+00
  0.00000000E+00  0.00000000E+00  0.00000000E+00  0.00000000E+00  1.27484665E-01
  2.52600418E-01  0.00000000E+00  0.00000000E+00  0.00000000E+00 -1.81242560E+00
  0.00000000E+00  0.00000000E+00  0.00000000E+00  2.44785889E+00  0.00000000E+00
  0.00000000E+00  0.00000000E+00 -1.05892672E+00  0.00000000E+00  0.00000000E+00
  0.00000000E+00  5.26005657E-03  0.00000000E+00  0.00000000E+00  1.30402739E-15
  0.00000000E+00 -4.71732148E-17 -6.73224296E-17  0.00000000E+00  0.00000000E+00
  0.00000000E+00  1.22596934E-15  0.00000000E+00  0.00000000E+00  0.00000000E+00
 -2.88441975E-15  0.00000000E+00  0.00000000E+00  0.00000000E+00  1.48758966E-15
  0.00000000E+00  0.00000000E+00  0.00000000E+00 -3.07081080E-14  0.00000000E+00
  0.00000000E+00  1.00000000E+00  0.00000000E+00  0.00000000E+00  0.00000000E+00
  0.00000000E+00  0.00000000E+00  0.00000000E+00  0.00000000E+00  0.00000000E+00
  0.00000000E+00  0.00000000E+00  0.00000000E+00  0.00000000E+00  0.00000000E+00
  0.00000000E+00  0.00000000E+00  0.00000000E+00  0.00000000E+00  0.00000000E+00
  0.00000000E+00  0.00000000E+00  0.00000000E+00  0.00000000E+00  1.00000000E+00
  0.00000000E+00  0.00000000E+00  0.00000000E+00  0.00000000E+00  0.00000000E+00
  0.00000000E+00  0.00000000E+00  0.00000000E+00  0.00000000E+00  0.00000000E+00
  0.00000000E+00  0.00000000E+00  0.00000000E+00  0.00000000E+00  0.00000000E+00
  0.00000000E+00  0.00000000E+00  0.00000000E+00  1.00000000E+00  0.00000000E+00
  0.00000000E+00  0.00000000E+00  0.00000000E+00  0.00000000E+00  0.00000000E+00
  0.00000000E+00  0.00000000E+00  0.00000000E+00  0.00000000E+00  0.00000000E+00
  0.00000000E+00  0.00000000E+00  0.00000000E+00  0.00000000E+00  0.00000000E+00
  0.00000000E+00  0.00000000E+00  0.00000000E+00  0.00000000E+00  0.00000000E+00
  0.00000000E+00  1.00000000E+00  0.00000000E+00  0.00000000E+00 -1.68651879E-03
 -2.88867251E-03  0.00000000E+00  0.00000000E+00  0.00000000E+00  1.47248294E-02
  0.00000000E+00  0.00000000E+00  0.00000000E+00 -7.15474530E-03  0.00000000E+00
  0.00000000E+00  0.00000000E+00  3.74481581E-03  0.00000000E+00  0.00000000E+00
  0.00000000E+00  9.99948639E-01  0.00000000E+00  0.00000000E+00  3.10614396E-14
  0.00000000E+00  0.00000000E+00  0.00000000E+00 -1.27539601E+00  0.00000000E+00
  0.00000000E+00  0.00000000E+00  1.50791023E+00  0.00000000E+00  0.00000000E+00
  0.00000000E+00 -8.32711026E-01  0.00000000E+00  0.00000000E+00  0.00000000E+00
  3.01509602E-01  0.00000000E+00  0.00000000E+00  0.00000000E+00  0.00000000E+00
  0.00000000E+00  0.00000000E+00  0.00000000E+00  0.00000000E+00  0.00000000E+00
  0.00000000E+00 -1.27539601E+00  0.00000000E+00  0.00000000E+00  0.00000000E+00
  1.50791023E+00  0.00000000E+00  0.00000000E+00  0.00000000E+00 -8.32711026E-01
  0.00000000E+00  0.00000000E+00  0.00000000E+00  3.01509602E-01  0.00000000E+00
  0.00000000E+00  0.00000000E+00  0.00000000E+00  0.00000000E+00  0.00000000E+00
  0.00000000E+00  0.00000000E+00  0.00000000E+00  0.00000000E+00 -1.27837568E+00
  0.00000000E+00  0.00000000E+00  0.00000000E+00  1.50110326E+00  0.00000000E+00
  0.00000000E+00  0.00000000E+00 -8.27119274E-01  0.00000000E+00  0.00000000E+00
  0.00000000E+00  2.99440701E-01  0.00000000E+00  0.00000000E+00  0.00000000E+00
  0.00000000E+00  0.00000000E+00 -2.24578655E+00  2.33039074E+00  0.00000000E+00
  0.00000000E+00  0.00000000E+00 -2.48997087E-01  0.00000000E+00  0.00000000E+00
  0.00000000E+00  2.28878735E-01  0.00000000E+00  0.00000000E+00  0.00000000E+00
 -9.12366027E-02  0.00000000E+00  0.00000000E+00  0.00000000E+00 -3.78166194E-05
  0.00000000E+00  0.00000000E+00 -9.06103995E-18  0.00000000E+00
Orthonormal basis                          R   N=         484
  2.40254389E-01  2.48108308E-01  0.00000000E+00  0.00000000E+00  0.00000000E+00
  3.12714494E-01  0.00000000E+00  0.00000000E+00  0.00000000E+00  3.09388206E-01
  0.00000000E+00  0.00000000E+00  0.00000000E+00  2.48983539E-01  0.00000000E+00
  0.00000000E+00  0.00000000E+00  0.00000000E+00  0.00000000E+00  0.00000000E+00
  0.00000000E+00  0.00000000E+00  4.37612213E-01  4.31375527E-01  0.00000000E+00
  0.00000000E+00  0.00000000E+00 -8.77440131E-02  0.00000000E+00  0.00000000E+00
  0.00000000E+00 -3.15852006E-01  0.00000000E+00  0.00000000E+00  0.00000000E+00
 -3.49446382E-01  0.00000000E+00  0.00000000E+00  0.00000000E+00  0.00000000E+00
  0.00000000E+00  0.00000000E+00  0.00000000E+00  0.00000000E+00  0.00000000E+00
  0.00000000E+00  0.00000000E+00  0.00000000E+00  0.00000000E+00  0.00000000E+00
  0.00000000E+00  0.00000000E+00  0.00000000E+00  0.00000000E+00  0.00000000E+00
  0.00000000E+00  0.00000000E+00  0.00000000E+00  0.00000000E+00  0.00000000E+00
  0.00000000E+00  1.00000000E+00  0.00000000E+00  0.00000000E+00  0.00000000E+00
  0.00000000E+00  0.00000000E+00  0.00000000E+00  0.00000000E+00  0.00000000E+00
  0.00000000E+00  0.00000000E+00  0.00000000E+00  0.00000000E+00  0.00000000E+00
  0.00000000E+00  0.00000000E+00  0.00000000E+00  0.00000000E+00  0.00000000E+00
  0.00000000E+00  0.00000000E+00  0.00000000E+00  0.00000000E+00  0.00000000E+00
  0.00000000E+00  1.00000000E+00  0.00000000E+00 -2.92457799E-01 -1.77881569E-01
  0.00000000E+00  0.00000000E+00  0.00000000E+00  1.01803681E+00  0.00000000E+00
  0.00000000E+00  0.00000000E+00  6.58257692E-02  0.00000000E+00  0.00000000E+00
  0.00000000E+00 -9.00952799E-01  0.00000000E+00  0.00000000E+00  0.00000000E+00
  0.00000000E+00  0.00000000E+00  0.00000000E+00  0.00000000E+00  0.00000000E+00
  2.02231300E+00 -1.95618674E+00  0.00000000E+00  0.00000000E+00  0.00000000E+00
 -4.83547008E-01  0.00000000E+00  0.00000000E+00  0.00000000E+00  1.08069896E+00
  0.00000000E+00  0.00000000E+00  0.00000000E+00 -7.37666230E-01  0.00000000E+00
  0.00000000E+00  0.00000000E+00  0.00000000E+00  0.00000000E+00  0.00000000E+00
  0.00000000E+00  0.00000000E+00 -9.78495787E-01  1.28612528E+00  0.00000000E+00
  0.00000000E+00  0.00000000E+00 -1.52706199E+00  0.00000000E+00  0.00000000E+00
  0.00000000E+00  2.46440269E+00  0.00000000E+00  0.00000000E+00  0.00000000E+00
 -1.48175728E+00  0.00000000E+00  0.00000000E+00  0.00000000E+00  0.00000000E+00
  0.00000000E+00  0.00000000E+00  0.00000000E+00  0.00000000E+00  0.00000000E+00
  0.00000000E+00  0.00000000E+00  0.00000000E+00  0.00000000E+00  0.00000000E+00
  0.00000000E+00  0.00000000E+00  0.00000000E+00  0.00000000E+00  0.00000000E+00
  0.00000000E+00  0.00000000E+00  0.00000000E+00  0.00000000E+00  0.00000000E+00
  0.00000000E+00  0.00000000E+00  0.00000000E+00  0.00000000E+00  0.00000000E+00
  1.00000000E+00  0.00000000E+00  0.00000000E+00  0.00000000E+00  0.00000000E+00
  0.00000000E+00  0.00000000E+00  0.00000000E+00  0.00000000E+00  0.00000000E+00
  0.00000000E+00  0.00000000E+00  0.00000000E+00  0.00000000E+00  0.00000000E+00
  0.00000000E+00  0.00000000E+00  0.00000000E+00  0.00000000E+00  1.00000000E+00
  0.00000000E+00  0.00000000E+00  0.00000000E+00  0.00000000E+00  0.00000000E+00
  0.00000000E+00  0.00000000E+00  0.00000000E+00  0.00000000E+00  0.00000000E+00
  0.00000000E+00  0.00000000E+00  0.00000000E+00  0.00000000E+00  0.00000000E+00
  0.00000000E+00  0.00000000E+00  0.00000000E+00  0.00000000E+00  0.00000000E+00
  0.00000000E+00  0.00000000E+00  1.00000000E+00  0.00000000E+00  0.00000000E+00
  0.00000000E+00  0.00000000E+00  0.00000000E+00  0.00000000E+00  2.55873991E-01
  0.00000000E+00  0.00000000E+00  0.00000000E+00  3.72870611E-01  0.00000000E+00
  0.00000000E+00  0.00000000E+00  3.88870282E-01  0.00000000E+00  0.00000000E+00
  0.00000000E+00  2.95582357E-01  0.00000000E+00  0.00000000E+00  0.00000000E+00
  0.00000000E+00  0.00000000E+00  0.00000000E+00  0.00000000E+00  0.00000000E+00
  0.00000000E+00  6.03851608E-01  0.00000000E+00  0.00000000E+00  0.00000000E+00
  3.22837419E-01  0.00000000E+00  0.00000000E+00  0.00000000E+00 -2.97177247E-01