fubar                                                                   
SP        UPBE1PBE                                                    6-311+G(d,p)        
Number of atoms                            I                1
Info1-9                                    I   N=           9
          11          10           0           0           0         110
           1          18       -1302
Full Title                                 C   N=           1
fubar       
Route                                      C   N=           3
#PBE1PBE/6-311+G(d,p) scf=tight     
Charge                                     I                2
Multiplicity                               I                2
Number of electrons                        I                1
Number of alpha electrons                  I                1
Number of beta electrons                   I                0
Number of basis functions                  I               22
Number of independent functions            I               22
Number of point charges in /Mol/           I                0
Number of translation vectors              I                0
Atomic numbers                             I   N=           1
           3
Nuclear charges                            R   N=           1
  3.00000000E+00
Current cartesian coordinates              R   N=           3
  0.00000000E+00  0.00000000E+00  0.00000000E+00
Number of symbols in /Mol/                 I                0
Int Atom Types                             I   N=           1
           0
Force Field                                I                0
Atom Types                                 C   N=           1
            
MM charges                                 R   N=           1
  0.00000000E+00
Integer atomic weights                     I   N=           1
           7
Real atomic weights                        R   N=           1
  7.01600450E+00
Atom fragment info                         I   N=           1
           0
Atom residue num                           I   N=           1
           0
Nuclear spins                              I   N=           1
           3
Nuclear ZEff                               R   N=           1
 -1.35000000E+00
Nuclear ZNuc                               R   N=           1
  3.00000000E+00
Nuclear QMom                               R   N=           1
 -4.01000000E+00
Nuclear GFac                               R   N=           1
  3.25642400E+00
MicOpt                                     I   N=           1
          -1
Number of residues                         I                0
Number of secondary structures             I                0
SymInf integers                            I   N=          26
           1           8           1           1           1           1
          -1          -1          -1           1          -1          -1
          -1           1          -1          -1          -1          -1
           1           1           1          -1           1           1
           1          -1
RotTr to input orientation                 R   N=          12
  0.00000000E+00  0.00000000E+00 -1.00000000E+00  0.00000000E+00  1.00000000E+00
  0.00000000E+00  1.00000000E+00  0.00000000E+00  0.00000000E+00  0.00000000E+00
  0.00000000E+00  0.00000000E+00
Number of contracted shells                I                6
Number of primitive shells                 I               13
Pure/Cartesian d shells                    I                0
Pure/Cartesian f shells                    I                0
Highest angular momentum                   I                2
Largest degree of contraction              I                6
Shell types                                I   N=           6
           0          -1          -1          -1          -1          -2
Number of primitives per shell             I   N=           6
           6           3           1           1           1           1
Shell to atom map                          I   N=           6
           1           1           1           1           1           1
Primitive exponents                        R   N=          13
  9.00460000E+02  1.34433000E+02  3.04365000E+01  8.62639000E+00  2.48332000E+00
  3.03179000E-01  4.86890000E+00  8.56924000E-01  2.43227000E-01  6.35070000E-02
  2.43683000E-02  7.40000000E-03  2.00000000E-01
Contraction coefficients                   R   N=          13
  2.28704037E-03  1.76350029E-02  8.73434143E-02  2.80977046E-01  6.58741108E-01
  1.18712019E-01  9.33292995E-02  9.43044995E-01 -2.79826999E-03  1.00000000E+00
  1.00000000E+00  1.00000000E+00  1.00000000E+00
P(S=P) Contraction coefficients            R   N=          13
  0.00000000E+00  0.00000000E+00  0.00000000E+00  0.00000000E+00  0.00000000E+00
  0.00000000E+00  3.27660966E-02  1.59791983E-01  8.85666908E-01  1.00000000E+00
  1.00000000E+00  1.00000000E+00  0.00000000E+00
Coordinates of each shell                  R   N=          18
  0.00000000E+00  0.00000000E+00  0.00000000E+00  0.00000000E+00  0.00000000E+00
  0.00000000E+00  0.00000000E+00  0.00000000E+00  0.00000000E+00  0.00000000E+00
  0.00000000E+00  0.00000000E+00  0.00000000E+00  0.00000000E+00  0.00000000E+00
  0.00000000E+00  0.00000000E+00  0.00000000E+00
Num ILSW                                   I              100
ILSW                                       I   N=         100
           1           0           0           0           2           0
           0           0           0           0        1009          -1
           5           0           0           0           0           0
           0           0           0           0           0           0
           1           0           0           0           0           0
           0           0      100000           0          -1           0
           0           0           0           0           0           0
           0           0           0           1           0           0
           0 -2000000000           1           0           0           0
           0           0           4          52           0           0
           0           0          13           0           0           0
           0           0           0           1           0           1
           0           0           0           0           0           0
           0           0           0           0           0           0
           0           0           0           0           0           0
           0           0           0           0           0           0
           0           0           0           0
Num RLSW                                   I               52
RLSW                                       R   N=          52
  7.50000000E-01  7.50000000E-01  1.00000000E+00  1.00000000E+00  2.50000000E-01
  0.00000000E+00  0.00000000E+00  1.00000000E+00  0.00000000E+00  0.00000000E+00
  0.00000000E+00  0.00000000E+00  1.00000000E+00  0.00000000E+00  0.00000000E+00
  0.00000000E+00  0.00000000E+00  1.00000000E+00  0.00000000E+00  0.00000000E+00
  0.00000000E+00  0.00000000E+00  1.00000000E+00  0.00000000E+00  0.00000000E+00
  0.00000000E+00  0.00000000E+00  1.00000000E+00  0.00000000E+00  0.00000000E+00
  0.00000000E+00  0.00000000E+00  1.00000000E+00  0.00000000E+00  0.00000000E+00
  0.00000000E+00  0.00000000E+00  0.00000000E+00  1.00000000E+00  1.00000000E+00
  0.00000000E+00  1.00000000E+00  0.00000000E+00  0.00000000E+00  0.00000000E+00
  0.00000000E+00  0.00000000E+00  0.00000000E+00  0.00000000E+00  0.00000000E+00
  0.00000000E+00  0.00000000E+00
MxBond                                     I                1
NBond                                      I   N=           1
           0
IBond                                      I   N=           1
           0
RBond                                      R   N=           1
  0.00000000E+00
Virial Ratio                               R      1.999521965347683E+00
SCF Energy                                 R     -4.487835790742578E+00
Total Energy                               R     -4.487835790742578E+00
S**2                                       R      7.500000000000000E-01
S**2 after annihilation                    R      7.500000000000000E-01
RMS Density                                R      9.210991898290337E-10
Job Status                                 I                1
Nuclear derivative order                   I                0
External E-field                           R   N=          35
  0.00000000E+00  0.00000000E+00  0.00000000E+00  0.00000000E+00  0.00000000E+00
  0.00000000E+00  0.00000000E+00  0.00000000E+00  0.00000000E+00  0.00000000E+00
  0.00000000E+00  0.00000000E+00  0.00000000E+00  0.00000000E+00  0.00000000E+00
  0.00000000E+00  0.00000000E+00  0.00000000E+00  0.00000000E+00  0.00000000E+00
  0.00000000E+00  0.00000000E+00  0.00000000E+00  0.00000000E+00  0.00000000E+00
  0.00000000E+00  0.00000000E+00  0.00000000E+00  0.00000000E+00  0.00000000E+00
  0.00000000E+00  0.00000000E+00  0.00000000E+00  0.00000000E+00  0.00000000E+00
IOpCl                                      I                1
IROHF                                      I                0
Alpha Orbital Energies                     R   N=          22
 -3.98414380E+00 -6.21229534E-01 -6.08260639E-01 -6.08260639E-01 -6.08260639E-01
 -2.49598105E-01 -2.49598105E-01 -2.49598105E-01 -2.43537818E-01 -1.33277137E-01
 -1.33277137E-01 -1.33277137E-01 -1.29865944E-01 -9.81758001E-02 -9.81758001E-02
 -9.81758001E-02 -9.81758001E-02 -9.81758001E-02 -6.83172279E-02 -6.83172279E-02
 -6.83172279E-02  1.94743112E+00
Beta Orbital Energies                      R   N=          22
 -2.83290046E+00 -5.50341485E-01 -5.05358156E-01 -5.05358156E-01 -5.05358156E-01
 -2.29874084E-01 -2.23574303E-01 -2.23574303E-01 -2.23574303E-01 -1.26457576E-01
 -1.22896193E-01 -1.22896193E-01 -1.22896193E-01 -6.15640823E-02 -6.15640823E-02
 -6.15640823E-02 -6.15640823E-02 -6.15640823E-02 -3.92396390E-02 -3.92396390E-02
 -3.92396390E-02  2.58721251E+00
Alpha MO coefficients                      R   N=         484
  7.61058172E-01  2.87542313E-01  0.00000000E+00  0.00000000E+00  0.00000000E+00
 -6.03695934E-02  0.00000000E+00  0.00000000E+00  0.00000000E+00  4.20069700E-02
  0.00000000E+00  0.00000000E+00  0.00000000E+00 -1.22386859E-02  0.00000000E+00
  0.00000000E+00  0.00000000E+00  3.61601492E-16  0.00000000E+00  0.00000000E+00
  8.05803436E-17  0.00000000E+00 -2.34738888E-01 -4.84207840E-02  0.00000000E+00
  0.00000000E+00  0.00000000E+00  1.46833500E+00  0.00000000E+00  0.00000000E+00
  0.00000000E+00 -6.35708038E-01  0.00000000E+00  0.00000000E+00  0.00000000E+00
  1.75206320E-01  0.00000000E+00  0.00000000E+00  0.00000000E+00  4.35396796E-17
  0.00000000E+00  0.00000000E+00 -4.32342540E-16  0.00000000E+00  0.00000000E+00
  0.00000000E+00  0.00000000E+00  0.00000000E+00  9.01120685E-01  0.00000000E+00
  0.00000000E+00  0.00000000E+00  1.60879227E-01  0.00000000E+00  0.00000000E+00
  0.00000000E+00  3.48330191E-03  0.00000000E+00  0.00000000E+00  0.00000000E+00
 -3.57446132E-03  0.00000000E+00  0.00000000E+00  0.00000000E+00  0.00000000E+00
  0.00000000E+00  0.00000000E+00  0.00000000E+00  9.01120685E-01  0.00000000E+00
  0.00000000E+00  0.00000000E+00  1.60879227E-01  0.00000000E+00  0.00000000E+00
  0.00000000E+00  3.48330191E-03  0.00000000E+00  0.00000000E+00  0.00000000E+00
 -3.57446132E-03  0.00000000E+00  0.00000000E+00  0.00000000E+00  0.00000000E+00
  0.00000000E+00  0.00000000E+00  0.00000000E+00  0.00000000E+00  0.00000000E+00
  0.00000000E+00  9.01120685E-01  0.00000000E+00  0.00000000E+00  0.00000000E+00
  1.60879227E-01  0.00000000E+00  0.00000000E+00  0.00000000E+00  3.48330191E-03
  0.00000000E+00  0.00000000E+00  0.00000000E+00 -3.57446132E-03  0.00000000E+00
  0.00000000E+00  0.00000000E+00  0.00000000E+00  0.00000000E+00  0.00000000E+00
  0.00000000E+00  0.00000000E+00  0.00000000E+00 -5.62401547E-01  0.00000000E+00
  0.00000000E+00  0.00000000E+00  5.20260917E-01  0.00000000E+00  0.00000000E+00
  0.00000000E+00  6.47538553E-01  0.00000000E+00  0.00000000E+00  0.00000000E+00
 -2.25941009E-02  0.00000000E+00  0.00000000E+00  0.00000000E+00  0.00000000E+00
  0.00000000E+00  0.00000000E+00  0.00000000E+00  0.00000000E+00  0.00000000E+00
  0.00000000E+00 -5.62401547E-01  0.00000000E+00  0.00000000E+00  0.00000000E+00
  5.20260917E-01  0.00000000E+00  0.00000000E+00  0.00000000E+00  6.47538553E-01
  0.00000000E+00  0.00000000E+00  0.00000000E+00 -2.25941009E-02  0.00000000E+00
  0.00000000E+00  0.00000000E+00  0.00000000E+00  0.00000000E+00  0.00000000E+00
  0.00000000E+00 -5.62401547E-01  0.00000000E+00  0.00000000E+00  0.00000000E+00
  5.20260917E-01  0.00000000E+00  0.00000000E+00  0.00000000E+00  6.47538553E-01
  0.00000000E+00  0.00000000E+00  0.00000000E+00 -2.25941009E-02  0.00000000E+00
  0.00000000E+00  0.00000000E+00  0.00000000E+00  0.00000000E+00  0.00000000E+00
  0.00000000E+00  9.73754401E-02  1.12774960E-02  0.00000000E+00  0.00000000E+00
  0.00000000E+00 -1.46222748E+00  0.00000000E+00  0.00000000E+00  0.00000000E+00
  2.01416370E+00  0.00000000E+00  0.00000000E+00  0.00000000E+00 -1.20773741E-01
  0.00000000E+00  0.00000000E+00  0.00000000E+00  6.66889069E-16  0.00000000E+00
  0.00000000E+00 -1.37524280E-16  0.00000000E+00  0.00000000E+00  0.00000000E+00
  0.00000000E+00  4.11912681E-01  0.00000000E+00  0.00000000E+00  0.00000000E+00
 -8.46359094E-01  0.00000000E+00  0.00000000E+00  0.00000000E+00  1.73899578E-01
  0.00000000E+00  0.00000000E+00  0.00000000E+00  9.27221494E-01  0.00000000E+00
  0.00000000E+00  0.00000000E+00  0.00000000E+00  0.00000000E+00  0.00000000E+00
  0.00000000E+00  0.00000000E+00  4.11912681E-01  0.00000000E+00  0.00000000E+00
  0.00000000E+00 -8.46359094E-01  0.00000000E+00  0.00000000E+00  0.00000000E+00
  1.73899578E-01  0.00000000E+00  0.00000000E+00  0.00000000E+00  9.27221494E-01
  0.00000000E+00  0.00000000E+00  0.00000000E+00  0.00000000E+00  0.00000000E+00
  0.00000000E+00  0.00000000E+00  0.00000000E+00  0.00000000E+00  0.00000000E+00
  0.00000000E+00  4.11912681E-01  0.00000000E+00  0.00000000E+00  0.00000000E+00
 -8.46359094E-01  0.00000000E+00  0.00000000E+00  0.00000000E+00  1.73899578E-01
  0.00000000E+00  0.00000000E+00  0.00000000E+00  9.27221494E-01  0.00000000E+00
  0.00000000E+00  0.00000000E+00  0.00000000E+00  0.00000000E+00  5.00025968E-02
  3.96379082E-03  0.00000000E+00  0.00000000E+00  0.00000000E+00 -1.02618004E+00
  0.00000000E+00  0.00000000E+00  0.00000000E+00  2.34689606E+00  0.00000000E+00
  0.00000000E+00  0.00000000E+00 -1.88182357E+00  0.00000000E+00  0.00000000E+00
  0.00000000E+00  1.24691441E-15  0.00000000E+00  0.00000000E+00 -2.35731313E-16
  0.00000000E+00  0.00000000E+00  0.00000000E+00  0.00000000E+00  0.00000000E+00
  0.00000000E+00  0.00000000E+00  0.00000000E+00  0.00000000E+00  0.00000000E+00
  0.00000000E+00  0.00000000E+00  0.00000000E+00  0.00000000E+00  0.00000000E+00
  0.00000000E+00  0.00000000E+00  0.00000000E+00  0.00000000E+00  0.00000000E+00
  0.00000000E+00  0.00000000E+00  1.00000000E+00  0.00000000E+00  0.00000000E+00
  0.00000000E+00  0.00000000E+00  0.00000000E+00  0.00000000E+00  0.00000000E+00
  0.00000000E+00  0.00000000E+00  0.00000000E+00  0.00000000E+00  0.00000000E+00
  0.00000000E+00  0.00000000E+00  0.00000000E+00  0.00000000E+00  0.00000000E+00
  0.00000000E+00  1.00000000E+00  0.00000000E+00  0.00000000E+00  0.00000000E+00
  0.00000000E+00  0.00000000E+00  0.00000000E+00  0.00000000E+00  0.00000000E+00
  0.00000000E+00  0.00000000E+00  0.00000000E+00  0.00000000E+00  0.00000000E+00
  0.00000000E+00  0.00000000E+00  0.00000000E+00  0.00000000E+00  0.00000000E+00
  0.00000000E+00  0.00000000E+00  0.00000000E+00  0.00000000E+00  1.00000000E+00
  0.00000000E+00  0.00000000E+00  1.33637046E-16  3.94925394E-17  0.00000000E+00
  0.00000000E+00  0.00000000E+00 -3.73049520E-16  0.00000000E+00  0.00000000E+00
  0.00000000E+00  9.45178246E-16  0.00000000E+00  0.00000000E+00  0.00000000E+00
 -6.00038207E-16  0.00000000E+00  0.00000000E+00  0.00000000E+00 -3.50761498E-02
  0.00000000E+00  0.00000000E+00  9.99384643E-01  0.00000000E+00 -2.15994376E-16
 -1.60869575E-17  0.00000000E+00  0.00000000E+00  0.00000000E+00  2.21885238E-15
  0.00000000E+00  0.00000000E+00  0.00000000E+00 -4.05089449E-15  0.00000000E+00
  0.00000000E+00  0.00000000E+00  2.48820934E-15  0.00000000E+00  0.00000000E+00
  0.00000000E+00  9.99384643E-01  0.00000000E+00  0.00000000E+00  3.50761498E-02
  0.00000000E+00  0.00000000E+00  0.00000000E+00  6.23533981E-01  0.00000000E+00
  0.00000000E+00  0.00000000E+00 -1.86456161E+00  0.00000000E+00  0.00000000E+00
  0.00000000E+00  2.20148919E+00  0.00000000E+00  0.00000000E+00  0.00000000E+00
 -1.15786390E+00  0.00000000E+00  0.00000000E+00  0.00000000E+00  0.00000000E+00
  0.00000000E+00  0.00000000E+00  0.00000000E+00  0.00000000E+00  0.00000000E+00
  0.00000000E+00  0.00000000E+00  6.23533981E-01  0.00000000E+00  0.00000000E+00
  0.00000000E+00 -1.86456161E+00  0.00000000E+00  0.00000000E+00  0.00000000E+00
  2.20148919E+00  0.00000000E+00  0.00000000E+00  0.00000000E+00 -1.15786390E+00
  0.00000000E+00  0.00000000E+00  0.00000000E+00  0.00000000E+00  0.00000000E+00
  0.00000000E+00  0.00000000E+00  0.00000000E+00  6.23533981E-01  0.00000000E+00
  0.00000000E+00  0.00000000E+00 -1.86456161E+00  0.00000000E+00  0.00000000E+00
  0.00000000E+00  2.20148919E+00  0.00000000E+00  0.00000000E+00  0.00000000E+00
 -1.15786390E+00  0.00000000E+00  0.00000000E+00  0.00000000E+00  0.00000000E+00
  0.00000000E+00  0.00000000E+00 -1.57682125E+00  1.86494413E+00  0.00000000E+00
  0.00000000E+00  0.00000000E+00 -7.90984830E-01  0.00000000E+00  0.00000000E+00
  0.00000000E+00  6.71640919E-01  0.00000000E+00  0.00000000E+00  0.00000000E+00
 -2.11365672E-01  0.00000000E+00  0.00000000E+00  0.00000000E+00 -9.50746054E-17
  0.00000000E+00  0.00000000E+00 -2.93708451E-18  0.00000000E+00
Beta MO coefficients                       R   N=         484
  6.26074025E-01  4.22157279E-01  0.00000000E+00  0.00000000E+00  0.00000000E+00
 -8.50740449E-03  0.00000000E+00  0.00000000E+00  0.00000000E+00  5.60081987E-03
  0.00000000E+00  0.00000000E+00  0.00000000E+00 -1.59973470E-03  0.00000000E+00
  0.00000000E+00  0.00000000E+00 -3.14626291E-16  0.00000000E+00  0.00000000E+00
 -1.22281617E-15  0.00000000E+00 -1.78903425E-01 -1.58916613E-01  0.00000000E+00
  0.00000000E+00  0.00000000E+00  1.37846850E+00  0.00000000E+00  0.00000000E+00
  0.00000000E+00 -4.72574988E-01  0.00000000E+00  0.00000000E+00  0.00000000E+00
  1.31812641E-01  0.00000000E+00  0.00000000E+00  0.00000000E+00  6.12230661E-17
  0.00000000E+00  0.00000000E+00 -3.55820427E-16  0.00000000E+00  0.00000000E+00
  0.00000000E+00  0.00000000E+00  0.00000000E+00  7.39097489E-01  0.00000000E+00
  0.00000000E+00  0.00000000E+00  4.15389143E-01  0.00000000E+00  0.00000000E+00
  0.00000000E+00 -7.05017079E-02  0.00000000E+00  0.00000000E+00  0.00000000E+00
  1.90291306E-02  0.00000000E+00  0.00000000E+00  0.00000000E+00  0.00000000E+00
  0.00000000E+00  0.00000000E+00  0.00000000E+00  0.00000000E+00  7.39097489E-01
  0.00000000E+00  0.00000000E+00  0.00000000E+00  4.15389143E-01  0.00000000E+00
  0.00000000E+00  0.00000000E+00 -7.05017079E-02  0.00000000E+00  0.00000000E+00
  0.00000000E+00  1.90291306E-02  0.00000000E+00  0.00000000E+00  0.00000000E+00
  0.00000000E+00  0.00000000E+00  0.00000000E+00  0.00000000E+00  0.00000000E+00
  7.39097489E-01  0.00000000E+00  0.00000000E+00  0.00000000E+00  4.15389143E-01
  0.00000000E+00  0.00000000E+00  0.00000000E+00 -7.05017079E-02  0.00000000E+00
  0.00000000E+00  0.00000000E+00  1.90291306E-02  0.00000000E+00  0.00000000E+00
  0.00000000E+00  0.00000000E+00  0.00000000E+00  0.00000000E+00  0.00000000E+00
  8.07813173E-02  6.98154129E-02  0.00000000E+00  0.00000000E+00  0.00000000E+00
 -1.52182590E+00  0.00000000E+00  0.00000000E+00  0.00000000E+00  1.94367237E+00
  0.00000000E+00  0.00000000E+00  0.00000000E+00 -3.90407795E-02  0.00000000E+00
  0.00000000E+00  0.00000000E+00 -4.10905144E-16  0.00000000E+00  0.00000000E+00
 -4.54443698E-16  0.00000000E+00  0.00000000E+00  0.00000000E+00  0.00000000E+00
  0.00000000E+00 -5.24292505E-01  0.00000000E+00  0.00000000E+00  0.00000000E+00
  1.43101245E-01  0.00000000E+00  0.00000000E+00  0.00000000E+00  9.12202818E-01
  0.00000000E+00  0.00000000E+00  0.00000000E+00 -1.66697002E-02  0.00000000E+00
  0.00000000E+00  0.00000000E+00  0.00000000E+00  0.00000000E+00  0.00000000E+00
  0.00000000E+00  0.00000000E+00 -5.24292505E-01  0.00000000E+00  0.00000000E+00
  0.00000000E+00  1.43101245E-01  0.00000000E+00  0.00000000E+00  0.00000000E+00
  9.12202818E-01  0.00000000E+00  0.00000000E+00  0.00000000E+00 -1.66697002E-02
  0.00000000E+00  0.00000000E+00  0.00000000E+00  0.00000000E+00  0.00000000E+00
  0.00000000E+00  0.00000000E+00  0.00000000E+00 -5.24292505E-01  0.00000000E+00
  0.00000000E+00  0.00000000E+00  1.43101245E-01  0.00000000E+00  0.00000000E+00
  0.00000000E+00  9.12202818E-01  0.00000000E+00  0.00000000E+00  0.00000000E+00
 -1.66697002E-02  0.00000000E+00  0.00000000E+00  0.00000000E+00  0.00000000E+00
  0.00000000E+00  0.00000000E+00  0.00000000E+00  4.37340542E-02  3.71314035E-02
  0.00000000E+00  0.00000000E+00  0.00000000E+00 -1.14970156E+00  0.00000000E+00
  0.00000000E+00  0.00000000E+00  2.47159234E+00  0.00000000E+00  0.00000000E+00
  0.00000000E+00 -1.89257970E+00  0.00000000E+00  0.00000000E+00  0.00000000E+00
  6.68591967E-16  0.00000000E+00  0.00000000E+00  8.97545412E-16  0.00000000E+00
  0.00000000E+00  0.00000000E+00  3.73135069E-01  0.00000000E+00  0.00000000E+00
  0.00000000E+00 -4.41678030E-01  0.00000000E+00  0.00000000E+00  0.00000000E+00
 -4.07850009E-01  0.00000000E+00  0.00000000E+00  0.00000000E+00  1.16120744E+00
  0.00000000E+00  0.00000000E+00  0.00000000E+00  0.00000000E+00  0.00000000E+00
  0.00000000E+00  0.00000000E+00  0.00000000E+00  0.00000000E+00  0.00000000E+00
  0.00000000E+00  3.73135069E-01  0.00000000E+00  0.00000000E+00  0.00000000E+00
 -4.41678030E-01  0.00000000E+00  0.00000000E+00  0.00000000E+00 -4.07850009E-01
  0.00000000E+00  0.00000000E+00  0.00000000E+00  1.16120744E+00  0.00000000E+00
  0.00000000E+00  0.00000000E+00  0.00000000E+00  0.00000000E+00  0.00000000E+00
  0.00000000E+00  0.00000000E+00  3.73135069E-01  0.00000000E+00  0.00000000E+00
  0.00000000E+00 -4.41678030E-01  0.00000000E+00  0.00000000E+00  0.00000000E+00
 -4.07850009E-01  0.00000000E+00  0.00000000E+00  0.00000000E+00  1.16120744E+00
  0.00000000E+00  0.00000000E+00  0.00000000E+00  0.00000000E+00  0.00000000E+00
  0.00000000E+00 -2.08097396E-17  1.00941268E-17  0.00000000E+00  0.00000000E+00
  0.00000000E+00  1.46753724E-16  0.00000000E+00  0.00000000E+00  0.00000000E+00
 -1.09254244E-15  0.00000000E+00  0.00000000E+00  0.00000000E+00  1.53148676E-15
  0.00000000E+00  0.00000000E+00  0.00000000E+00  8.27786085E-01  0.00000000E+00
  0.00000000E+00  5.61043846E-01  0.00000000E+00  5.18212793E-17  1.49509147E-17
  0.00000000E+00  0.00000000E+00  0.00000000E+00  4.28104188E-16  0.00000000E+00
  0.00000000E+00  0.00000000E+00 -6.26964773E-16  0.00000000E+00  0.00000000E+00
  0.00000000E+00  5.83260074E-16  0.00000000E+00  0.00000000E+00  0.00000000E+00
 -5.61043846E-01  0.00000000E+00  0.00000000E+00  8.27786085E-01  0.00000000E+00
  0.00000000E+00  0.00000000E+00  0.00000000E+00  0.00000000E+00  0.00000000E+00
  0.00000000E+00  0.00000000E+00  0.00000000E+00  0.00000000E+00  0.00000000E+00
  0.00000000E+00  0.00000000E+00  0.00000000E+00  0.00000000E+00  0.00000000E+00
  0.00000000E+00  0.00000000E+00  0.00000000E+00  0.00000000E+00  0.00000000E+00
  0.00000000E+00  1.00000000E+00  0.00000000E+00  0.00000000E+00  0.00000000E+00
  0.00000000E+00  0.00000000E+00  0.00000000E+00  0.00000000E+00  0.00000000E+00
  0.00000000E+00  0.00000000E+00  0.00000000E+00  0.00000000E+00  0.00000000E+00
  0.00000000E+00  0.00000000E+00  0.00000000E+00  0.00000000E+00  0.00000000E+00
  1.00000000E+00  0.00000000E+00  0.00000000E+00  0.00000000E+00  0.00000000E+00
  0.00000000E+00  0.00000000E+00  0.00000000E+00  0.00000000E+00  0.00000000E+00
  0.00000000E+00  0.00000000E+00  0.00000000E+00  0.00000000E+00  0.00000000E+00
  0.00000000E+00  0.00000000E+00  0.00000000E+00  0.00000000E+00  0.00000000E+00
  0.00000000E+00  0.00000000E+00  0.00000000E+00  1.00000000E+00  0.00000000E+00
  0.00000000E+00  0.00000000E+00  0.00000000E+00  8.52292886E-01  0.00000000E+00
  0.00000000E+00  0.00000000E+00 -2.02518188E+00  0.00000000E+00  0.00000000E+00
  0.00000000E+00  2.07188029E+00  0.00000000E+00  0.00000000E+00  0.00000000E+00
 -9.22967530E-01  0.00000000E+00  0.00000000E+00  0.00000000E+00  0.00000000E+00
  0.00000000E+00  0.00000000E+00  0.00000000E+00  0.00000000E+00  0.00000000E+00
  0.00000000E+00  0.00000000E+00  8.52292886E-01  0.00000000E+00  0.00000000E+00
  0.00000000E+00 -2.02518188E+00  0.00000000E+00  0.00000000E+00  0.00000000E+00
  2.07188029E+00  0.00000000E+00  0.00000000E+00  0.00000000E+00 -9.22967530E-01
  0.00000000E+00  0.00000000E+00  0.00000000E+00  0.00000000E+00  0.00000000E+00
  0.00000000E+00  0.00000000E+00  0.00000000E+00  8.52292886E-01  0.00000000E+00
  0.00000000E+00  0.00000000E+00 -2.02518188E+00  0.00000000E+00  0.00000000E+00
  0.00000000E+00  2.07188029E+00  0.00000000E+00  0.00000000E+00  0.00000000E+00
 -9.22967530E-01  0.00000000E+00  0.00000000E+00  0.00000000E+00  0.00000000E+00
  0.00000000E+00  0.00000000E+00 -1.64324252E+00  1.83124561E+00  0.00000000E+00
  0.00000000E+00  0.00000000E+00 -6.62154296E-01  0.00000000E+00  0.00000000E+00
  0.00000000E+00  5.58370736E-01  0.00000000E+00  0.00000000E+00  0.00000000E+00
 -1.74955653E-01  0.00000000E+00  0.00000000E+00  0.00000000E+00 -1.10371278E-16
  0.00000000E+00  0.00000000E+00  9.08164939E-18  0.00000000E+00
Orthonormal basis                          R   N=         484
  1.84076548E-01  2.14623396E-01  0.00000000E+00  0.00000000E+00  0.00000000E+00
  3.29791692E-01  0.00000000E+00  0.00000000E+00  0.00000000E+00  3.41076958E-01
  0.00000000E+00  0.00000000E+00  0.00000000E+00  2.76009801E-01  0.00000000E+00
  0.00000000E+00  0.00000000E+00  7.34018349E-18  0.00000000E+00  0.00000000E+00
  0.00000000E+00  0.00000000E+00  4.93533804E-01  4.68045001E-01  0.00000000E+00
  0.00000000E+00  0.00000000E+00 -1.01645313E-01  0.00000000E+00  0.00000000E+00
  0.00000000E+00 -2.42001301E-01  0.00000000E+00  0.00000000E+00  0.00000000E+00
 -2.72593794E-01  0.00000000E+00  0.00000000E+00  0.00000000E+00  3.98856870E-17
  0.00000000E+00  0.00000000E+00  0.00000000E+00  0.00000000E+00 -6.80864130E-17
 -1.01262339E-18  0.00000000E+00  0.00000000E+00  0.00000000E+00 -4.27154151E-18
  0.00000000E+00  0.00000000E+00  0.00000000E+00  5.66373593E-18  0.00000000E+00
  0.00000000E+00  0.00000000E+00  1.78360335E-17  0.00000000E+00  0.00000000E+00
  0.00000000E+00  1.00000000E+00  0.00000000E+00  0.00000000E+00  0.00000000E+00
  0.00000000E+00  0.00000000E+00  0.00000000E+00  0.00000000E+00  0.00000000E+00
  0.00000000E+00  0.00000000E+00  0.00000000E+00  0.00000000E+00  0.00000000E+00
  0.00000000E+00  0.00000000E+00  0.00000000E+00  0.00000000E+00  0.00000000E+00
  0.00000000E+00  0.00000000E+00  0.00000000E+00  0.00000000E+00  0.00000000E+00
  0.00000000E+00  1.00000000E+00  0.00000000E+00  3.18966190E-01  1.12146740E-03
  0.00000000E+00  0.00000000E+00  0.00000000E+00 -9.13955465E-01  0.00000000E+00
  0.00000000E+00  0.00000000E+00 -1.20031764E-01  0.00000000E+00  0.00000000E+00
  0.00000000E+00  1.02677549E+00  0.00000000E+00  0.00000000E+00  0.00000000E+00
 -1.49185685E-18  0.00000000E+00  0.00000000E+00  0.00000000E+00  0.00000000E+00
 -1.62002795E+00  1.69495660E+00  0.00000000E+00  0.00000000E+00  0.00000000E+00
 -8.62373782E-02  0.00000000E+00  0.00000000E+00  0.00000000E+00 -4.13384779E-01
  0.00000000E+00  0.00000000E+00  0.00000000E+00  3.76320704E-01  0.00000000E+00
  0.00000000E+00  0.00000000E+00 -1.13697472E-16  0.00000000E+00  0.00000000E+00
  0.00000000E+00  0.00000000E+00 -3.59123377E-01  6.52055367E-01  0.00000000E+00
  0.00000000E+00  0.00000000E+00 -2.23933428E+00  0.00000000E+00  0.00000000E+00
  0.00000000E+00  3.17199852E+00  0.00000000E+00  0.00000000E+00  0.00000000E+00
 -1.51161991E+00  0.00000000E+00  0.00000000E+00  0.00000000E+00 -2.42240217E-17
  0.00000000E+00  0.00000000E+00  0.00000000E+00  0.00000000E+00  0.00000000E+00
  0.00000000E+00  0.00000000E+00  0.00000000E+00  0.00000000E+00  0.00000000E+00
  0.00000000E+00  0.00000000E+00  0.00000000E+00  0.00000000E+00  0.00000000E+00
  0.00000000E+00  0.00000000E+00  0.00000000E+00  0.00000000E+00  0.00000000E+00
  0.00000000E+00  0.00000000E+00  0.00000000E+00  0.00000000E+00  0.00000000E+00
  1.00000000E+00  0.00000000E+00  0.00000000E+00  0.00000000E+00  0.00000000E+00
  0.00000000E+00  0.00000000E+00  0.00000000E+00  0.00000000E+00  0.00000000E+00
  0.00000000E+00  0.00000000E+00  0.00000000E+00  0.00000000E+00  0.00000000E+00
  0.00000000E+00  0.00000000E+00  0.00000000E+00  0.00000000E+00  1.00000000E+00
  0.00000000E+00  0.00000000E+00  0.00000000E+00  0.00000000E+00  0.00000000E+00
  0.00000000E+00  0.00000000E+00  0.00000000E+00  0.00000000E+00  0.00000000E+00
  0.00000000E+00  0.00000000E+00  0.00000000E+00  0.00000000E+00  0.00000000E+00
  0.00000000E+00  0.00000000E+00  0.00000000E+00  0.00000000E+00  0.00000000E+00
  0.00000000E+00  0.00000000E+00  1.00000000E+00  0.00000000E+00  0.00000000E+00
  0.00000000E+00  0.00000000E+00  0.00000000E+00  0.00000000E+00  2.33885646E-01
  0.00000000E+00  0.00000000E+00  0.00000000E+00  3.75450243E-01  0.00000000E+00
  0.00000000E+00  0.00000000E+00  3.88510353E-01  0.00000000E+00  0.00000000E+00
  0.00000000E+00  2.81315845E-01  0.00000000E+00  0.00000000E+00  0.00000000E+00
  0.00000000E+00  0.00000000E+00  0.00000000E+00  0.00000000E+00  0.00000000E+00
  0.00000000E+00  6.82102789E-01  0.00000000E+00  0.00000000E+00  0.00000000E+00
  2.63967830E-01  0.00000000E+00  0.00000000E+00  0.00000000E+00 -2.49077896E-01