fubar                                                                   
SP        UPBE1PBE                                                    6-311+G(d,p)        
Number of atoms                            I                1
Info1-9                                    I   N=           9
          11          10           0           0           0         110
           1          18       -1302
Full Title                                 C   N=           1
fubar       
Route                                      C   N=           3
#PBE1PBE/6-311+G(d,p) scf=tight     
Charge                                     I                1
Multiplicity                               I                3
Number of electrons                        I               16
Number of alpha electrons                  I                9
Number of beta electrons                   I                7
Number of basis functions                  I               30
Number of independent functions            I               30
Number of point charges in /Mol/           I                0
Number of translation vectors              I                0
Atomic numbers                             I   N=           1
          17
Nuclear charges                            R   N=           1
  1.70000000E+01
Current cartesian coordinates              R   N=           3
  0.00000000E+00  0.00000000E+00  0.00000000E+00
Number of symbols in /Mol/                 I                0
Int Atom Types                             I   N=           1
           0
Force Field                                I                0
Atom Types                                 C   N=           1
            
MM charges                                 R   N=           1
  0.00000000E+00
Integer atomic weights                     I   N=           1
          35
Real atomic weights                        R   N=           1
  3.49688527E+01
Atom fragment info                         I   N=           1
           0
Atom residue num                           I   N=           1
           0
Nuclear spins                              I   N=           1
           3
Nuclear ZEff                               R   N=           1
 -1.42400000E+01
Nuclear ZNuc                               R   N=           1
  1.70000000E+01
Nuclear QMom                               R   N=           1
 -8.16500000E+00
Nuclear GFac                               R   N=           1
  8.21874000E-01
MicOpt                                     I   N=           1
          -1
Number of residues                         I                0
Number of secondary structures             I                0
SymInf integers                            I   N=          26
           1           8           1           1           1           1
          -1          -1          -1           1          -1          -1
          -1           1          -1          -1          -1          -1
           1           1           1          -1           1           1
           1          -1
RotTr to input orientation                 R   N=          12
  0.00000000E+00  0.00000000E+00 -1.00000000E+00  0.00000000E+00  1.00000000E+00
  0.00000000E+00  1.00000000E+00  0.00000000E+00  0.00000000E+00  0.00000000E+00
  0.00000000E+00  0.00000000E+00
Number of contracted shells                I               13
Number of primitive shells                 I               25
Pure/Cartesian d shells                    I                0
Pure/Cartesian f shells                    I                0
Highest angular momentum                   I                2
Largest degree of contraction              I                6
Shell types                                I   N=          13
           0           0           0           0           0           0
          -1           1           1           1           1           1
          -2
Number of primitives per shell             I   N=          13
           6           3           1           1           1           1
           1           5           2           1           1           1
           1
Shell to atom map                          I   N=          13
           1           1           1           1           1           1
           1           1           1           1           1           1
           1
Primitive exponents                        R   N=          25
  1.05819000E+05  1.58720000E+04  3.61965000E+03  1.03080000E+03  3.39908000E+02
  1.24538000E+02  1.24538000E+02  4.95135000E+01  2.08056000E+01  6.58346000E+00
  2.56468000E+00  5.59763000E-01  1.83273000E-01  4.83000000E-02  5.89776000E+02
  1.39849000E+02  4.51413000E+01  1.68733000E+01  2.77152000E+00  6.74110000E+00
  2.77152000E+00  1.02387000E+00  3.81368000E-01  1.09437000E-01  7.50000000E-01
Contraction coefficients                   R   N=          25
  7.38000247E-04  5.71800191E-03  2.94950099E-02  1.17286039E-01  3.62949121E-01
  5.84149195E-01  1.34176973E-01  6.24249876E-01  2.91755942E-01  1.00000000E+00
  1.00000000E+00  1.00000000E+00  1.00000000E+00  1.00000000E+00  3.66556935E-03
  2.83679194E-02  1.24756603E-01  3.39654631E-01  7.47585963E-01 -1.57224381E+00
  9.92388882E-01  1.00000000E+00  1.00000000E+00  1.00000000E+00  1.00000000E+00
P(S=P) Contraction coefficients            R   N=          25
  0.00000000E+00  0.00000000E+00  0.00000000E+00  0.00000000E+00  0.00000000E+00
  0.00000000E+00  0.00000000E+00  0.00000000E+00  0.00000000E+00  0.00000000E+00
  0.00000000E+00  0.00000000E+00  0.00000000E+00  1.00000000E+00  0.00000000E+00
  0.00000000E+00  0.00000000E+00  0.00000000E+00  0.00000000E+00  0.00000000E+00
  0.00000000E+00  0.00000000E+00  0.00000000E+00  0.00000000E+00  0.00000000E+00
Coordinates of each shell                  R   N=          39
  0.00000000E+00  0.00000000E+00  0.00000000E+00  0.00000000E+00  0.00000000E+00
  0.00000000E+00  0.00000000E+00  0.00000000E+00  0.00000000E+00  0.00000000E+00
  0.00000000E+00  0.00000000E+00  0.00000000E+00  0.00000000E+00  0.00000000E+00
  0.00000000E+00  0.00000000E+00  0.00000000E+00  0.00000000E+00  0.00000000E+00
  0.00000000E+00  0.00000000E+00  0.00000000E+00  0.00000000E+00  0.00000000E+00
  0.00000000E+00  0.00000000E+00  0.00000000E+00  0.00000000E+00  0.00000000E+00
  0.00000000E+00  0.00000000E+00  0.00000000E+00  0.00000000E+00  0.00000000E+00
  0.00000000E+00  0.00000000E+00  0.00000000E+00  0.00000000E+00
Num ILSW                                   I              100
ILSW                                       I   N=         100
           1           0           0           0           2           0
           0           0           0           0        1009          -1
           5           0           0           0           0           0
           0           0           0           0           0           0
           1           0           0           0           0           0
           0           0      100000           0          -1           0
           0           0           0           0           0           0
           0           0           0           1           0           0
           0 -2000000000           1           0           0           0
           0           1           4          52           0           0
           0           0          13           0           0           0
           0           0           0           1           0           1
           0           0           0           0           0           0
           0           0           0           0           0           0
           0           0           0           0           0           0
           0           0           0           0           0           0
           0           0           0           0
Num RLSW                                   I               52
RLSW                                       R   N=          52
  7.50000000E-01  7.50000000E-01  1.00000000E+00  1.00000000E+00  2.50000000E-01
  0.00000000E+00  0.00000000E+00  1.00000000E+00  0.00000000E+00  0.00000000E+00
  0.00000000E+00  0.00000000E+00  1.00000000E+00  0.00000000E+00  0.00000000E+00
  0.00000000E+00  0.00000000E+00  1.00000000E+00  0.00000000E+00  0.00000000E+00
  0.00000000E+00  0.00000000E+00  1.00000000E+00  0.00000000E+00  0.00000000E+00
  0.00000000E+00  0.00000000E+00  1.00000000E+00  0.00000000E+00  0.00000000E+00
  0.00000000E+00  0.00000000E+00  1.00000000E+00  0.00000000E+00  0.00000000E+00
  0.00000000E+00  0.00000000E+00  0.00000000E+00  1.00000000E+00  1.00000000E+00
  0.00000000E+00  1.00000000E+00  0.00000000E+00  0.00000000E+00  0.00000000E+00
  0.00000000E+00  0.00000000E+00  0.00000000E+00  0.00000000E+00  0.00000000E+00
  0.00000000E+00  0.00000000E+00
MxBond                                     I                1
NBond                                      I   N=           1
           0
IBond                                      I   N=           1
           0
RBond                                      R   N=           1
  0.00000000E+00
Virial Ratio                               R      2.001798299669931E+00
SCF Energy                                 R     -4.595196223017138E+02
Total Energy                               R     -4.595196223017138E+02
S**2                                       R      2.002668228752938E+00
S**2 after annihilation                    R      2.000000647208765E+00
RMS Density                                R      4.462574677808490E-09
Job Status                                 I                1
Nuclear derivative order                   I                0
External E-field                           R   N=          35
  0.00000000E+00  0.00000000E+00  0.00000000E+00  0.00000000E+00  0.00000000E+00
  0.00000000E+00  0.00000000E+00  0.00000000E+00  0.00000000E+00  0.00000000E+00
  0.00000000E+00  0.00000000E+00  0.00000000E+00  0.00000000E+00  0.00000000E+00
  0.00000000E+00  0.00000000E+00  0.00000000E+00  0.00000000E+00  0.00000000E+00
  0.00000000E+00  0.00000000E+00  0.00000000E+00  0.00000000E+00  0.00000000E+00
  0.00000000E+00  0.00000000E+00  0.00000000E+00  0.00000000E+00  0.00000000E+00
  0.00000000E+00  0.00000000E+00  0.00000000E+00  0.00000000E+00  0.00000000E+00
IOpCl                                      I                1
IROHF                                      I                0
Alpha Orbital Energies                     R   N=          30
 -1.02257977E+02 -1.00561383E+01 -7.80038261E+00 -7.80038261E+00 -7.77268970E+00
 -1.31435237E+00 -8.31195029E-01 -8.31195029E-01 -7.66757800E-01 -1.90649224E-01
 -1.17834907E-01 -1.17834907E-01 -1.08043348E-01  1.75185305E-01  1.75185305E-01
  1.95715681E-01  3.33831403E-01  3.33831403E-01  3.86012976E-01  3.86012976E-01
  4.03672757E-01  4.52399191E-01  1.80114260E+00  1.80114260E+00  1.84880776E+00
  9.02251401E+00  2.53035349E+01  2.53035349E+01  2.53493380E+01  2.15154231E+02
Beta Orbital Energies                      R   N=          30
 -1.02242557E+02 -1.00409249E+01 -7.76924147E+00 -7.76924147E+00 -7.76418166E+00
 -1.18510558E+00 -7.29046670E-01 -5.99659585E-01 -5.99659585E-01 -1.71130869E-01
 -1.02684726E-01 -9.68039005E-02 -9.68039005E-02  2.05929575E-01  2.12374554E-01
  2.12374554E-01  4.65319141E-01  4.65319141E-01  4.71340093E-01  4.88347374E-01
  4.88347374E-01  4.96261904E-01  1.87033420E+00  1.87696266E+00  1.87696266E+00
  9.05431143E+00  2.53452415E+01  2.53452415E+01  2.53602184E+01  2.15167820E+02
Alpha MO coefficients                      R   N=         900
  4.11746417E-01  6.53990370E-01  1.47845674E-02 -3.66355977E-03  1.19581657E-03
 -6.26033937E-04  1.72858235E-04  0.00000000E+00  0.00000000E+00  0.00000000E+00
  0.00000000E+00  0.00000000E+00  0.00000000E+00  0.00000000E+00  0.00000000E+00
  0.00000000E+00  0.00000000E+00  0.00000000E+00  0.00000000E+00  0.00000000E+00
  0.00000000E+00  0.00000000E+00  0.00000000E+00  0.00000000E+00  0.00000000E+00
  3.18493693E-07  0.00000000E+00  0.00000000E+00 -5.51647258E-07  0.00000000E+00
 -1.21910295E-01 -3.27991181E-01  5.01336600E-01  6.08819515E-01  5.39176069E-02
 -1.58663416E-02  3.94554013E-03  0.00000000E+00  0.00000000E+00  0.00000000E+00
  0.00000000E+00  0.00000000E+00  0.00000000E+00  0.00000000E+00  0.00000000E+00
  0.00000000E+00  0.00000000E+00  0.00000000E+00  0.00000000E+00  0.00000000E+00
  0.00000000E+00  0.00000000E+00  0.00000000E+00  0.00000000E+00  0.00000000E+00
  4.57043705E-04  0.00000000E+00  0.00000000E+00 -7.91622918E-04  0.00000000E+00
  0.00000000E+00  0.00000000E+00  0.00000000E+00  0.00000000E+00  0.00000000E+00
  0.00000000E+00  0.00000000E+00  0.00000000E+00 -7.24191997E-06  0.00000000E+00
  0.00000000E+00  8.03295677E-01  0.00000000E+00  0.00000000E+00 -2.74475280E-01
  0.00000000E+00  0.00000000E+00  5.31309907E-02  0.00000000E+00  0.00000000E+00
 -1.17676705E-03  0.00000000E+00  0.00000000E+00  1.32313068E-04  0.00000000E+00
  0.00000000E+00  0.00000000E+00  0.00000000E+00  0.00000000E+00  0.00000000E+00
  0.00000000E+00  0.00000000E+00  0.00000000E+00  0.00000000E+00  0.00000000E+00
  0.00000000E+00  0.00000000E+00  0.00000000E+00  0.00000000E+00 -7.24191997E-06
  0.00000000E+00  0.00000000E+00  8.03295677E-01  0.00000000E+00  0.00000000E+00
 -2.74475280E-01  0.00000000E+00  0.00000000E+00  5.31309907E-02  0.00000000E+00
  0.00000000E+00 -1.17676705E-03  0.00000000E+00  0.00000000E+00  1.32313068E-04
  0.00000000E+00  0.00000000E+00  0.00000000E+00  0.00000000E+00  0.00000000E+00
  0.00000000E+00  0.00000000E+00  0.00000000E+00  0.00000000E+00  0.00000000E+00
  0.00000000E+00  0.00000000E+00  7.06863816E-05  0.00000000E+00  0.00000000E+00
  8.03782939E-01  0.00000000E+00  0.00000000E+00 -2.74833026E-01  0.00000000E+00
  0.00000000E+00  5.15629139E-02  0.00000000E+00  0.00000000E+00 -8.38156756E-04
  0.00000000E+00  0.00000000E+00 -3.98366812E-05  0.00000000E+00  0.00000000E+00
  0.00000000E+00  0.00000000E+00  0.00000000E+00  0.00000000E+00  0.00000000E+00
  4.01463577E-02  1.14615981E-01 -2.28168441E-01 -4.53285838E-01  7.44916224E-01
  5.08041393E-01 -3.19553041E-02  0.00000000E+00  0.00000000E+00  0.00000000E+00
  0.00000000E+00  0.00000000E+00  0.00000000E+00  0.00000000E+00  0.00000000E+00
  0.00000000E+00  0.00000000E+00  0.00000000E+00  0.00000000E+00  0.00000000E+00
  0.00000000E+00  0.00000000E+00  0.00000000E+00  0.00000000E+00  0.00000000E+00
  1.61547788E-02  0.00000000E+00  0.00000000E+00 -2.79808977E-02  0.00000000E+00
  0.00000000E+00  0.00000000E+00  0.00000000E+00  0.00000000E+00  0.00000000E+00
  0.00000000E+00  0.00000000E+00  0.00000000E+00 -4.11839737E-02  0.00000000E+00
  0.00000000E+00 -2.53822562E-01  0.00000000E+00  0.00000000E+00  9.42083135E-02
  0.00000000E+00  0.00000000E+00  3.01368223E-01  0.00000000E+00  0.00000000E+00
  6.61481856E-01  0.00000000E+00  0.00000000E+00  2.26471864E-01  0.00000000E+00
  0.00000000E+00  0.00000000E+00  0.00000000E+00  0.00000000E+00  0.00000000E+00
  0.00000000E+00  0.00000000E+00  0.00000000E+00  0.00000000E+00  0.00000000E+00
  0.00000000E+00  0.00000000E+00  0.00000000E+00  0.00000000E+00 -4.11839737E-02
  0.00000000E+00  0.00000000E+00 -2.53822562E-01  0.00000000E+00  0.00000000E+00
  9.42083135E-02  0.00000000E+00  0.00000000E+00  3.01368223E-01  0.00000000E+00
  0.00000000E+00  6.61481856E-01  0.00000000E+00  0.00000000E+00  2.26471864E-01
  0.00000000E+00  0.00000000E+00  0.00000000E+00  0.00000000E+00  0.00000000E+00
  0.00000000E+00  0.00000000E+00  0.00000000E+00  0.00000000E+00  0.00000000E+00
  0.00000000E+00  0.00000000E+00 -4.52260934E-02  0.00000000E+00  0.00000000E+00
 -2.48438298E-01  0.00000000E+00  0.00000000E+00  9.31816950E-02  0.00000000E+00
  0.00000000E+00  2.94978192E-01  0.00000000E+00  0.00000000E+00  6.45593595E-01
  0.00000000E+00  0.00000000E+00  2.57469203E-01  0.00000000E+00  0.00000000E+00
  0.00000000E+00  0.00000000E+00  0.00000000E+00  0.00000000E+00  0.00000000E+00
 -1.32540284E-02 -3.81570708E-02  7.87471618E-02  1.65991941E-01 -3.66475801E-01
 -5.14340847E-01  1.31187300E+00  0.00000000E+00  0.00000000E+00  0.00000000E+00
  0.00000000E+00  0.00000000E+00  0.00000000E+00  0.00000000E+00  0.00000000E+00
  0.00000000E+00  0.00000000E+00  0.00000000E+00  0.00000000E+00  0.00000000E+00
  0.00000000E+00  0.00000000E+00  0.00000000E+00  0.00000000E+00  0.00000000E+00
 -6.89262552E-03  0.00000000E+00  0.00000000E+00  1.19383776E-02  0.00000000E+00
  0.00000000E+00  0.00000000E+00  0.00000000E+00  0.00000000E+00  0.00000000E+00
  0.00000000E+00  0.00000000E+00  0.00000000E+00  0.00000000E+00  1.14820158E+00
  0.00000000E+00  0.00000000E+00  8.12675978E-02  0.00000000E+00  0.00000000E+00
 -2.97538680E-02  0.00000000E+00  0.00000000E+00 -1.21890375E-01  0.00000000E+00
  0.00000000E+00 -2.45046674E-01  0.00000000E+00  0.00000000E+00 -1.65516718E-01
  0.00000000E+00  0.00000000E+00  0.00000000E+00  0.00000000E+00  0.00000000E+00
  0.00000000E+00  0.00000000E+00  0.00000000E+00  0.00000000E+00  0.00000000E+00
  0.00000000E+00  0.00000000E+00  0.00000000E+00  1.14820158E+00  0.00000000E+00
  0.00000000E+00  8.12675978E-02  0.00000000E+00  0.00000000E+00 -2.97538680E-02
  0.00000000E+00  0.00000000E+00 -1.21890375E-01  0.00000000E+00  0.00000000E+00
 -2.45046674E-01  0.00000000E+00  0.00000000E+00 -1.65516718E-01  0.00000000E+00
  0.00000000E+00  0.00000000E+00  0.00000000E+00  0.00000000E+00  0.00000000E+00
  0.00000000E+00  0.00000000E+00  0.00000000E+00  0.00000000E+00  0.00000000E+00
  0.00000000E+00  0.00000000E+00  1.19851490E+00  0.00000000E+00  0.00000000E+00
  7.95553870E-02  0.00000000E+00  0.00000000E+00 -2.92640505E-02  0.00000000E+00
  0.00000000E+00 -1.18337869E-01  0.00000000E+00  0.00000000E+00 -2.29602067E-01
  0.00000000E+00  0.00000000E+00 -2.43087423E-01  0.00000000E+00  0.00000000E+00
  0.00000000E+00  0.00000000E+00  0.00000000E+00  0.00000000E+00  0.00000000E+00
  0.00000000E+00  0.00000000E+00  0.00000000E+00  0.00000000E+00  0.00000000E+00
  0.00000000E+00  0.00000000E+00  0.00000000E+00 -1.53851025E+00  0.00000000E+00
  0.00000000E+00  1.31080932E-01  0.00000000E+00  0.00000000E+00 -5.70832199E-02
  0.00000000E+00  0.00000000E+00 -1.38667054E-01  0.00000000E+00  0.00000000E+00
 -8.87281886E-01  0.00000000E+00  0.00000000E+00  2.28196057E+00  0.00000000E+00
  0.00000000E+00  0.00000000E+00  0.00000000E+00  0.00000000E+00  0.00000000E+00
  0.00000000E+00  0.00000000E+00  0.00000000E+00  0.00000000E+00  0.00000000E+00
  0.00000000E+00  0.00000000E+00  0.00000000E+00  0.00000000E+00 -1.53851025E+00
  0.00000000E+00  0.00000000E+00  1.31080932E-01  0.00000000E+00  0.00000000E+00
 -5.70832199E-02  0.00000000E+00  0.00000000E+00 -1.38667054E-01  0.00000000E+00
  0.00000000E+00 -8.87281886E-01  0.00000000E+00  0.00000000E+00  2.28196057E+00
  0.00000000E+00  0.00000000E+00  0.00000000E+00  0.00000000E+00  0.00000000E+00
  0.00000000E+00  0.00000000E+00  0.00000000E+00  0.00000000E+00  0.00000000E+00
  0.00000000E+00  0.00000000E+00 -1.50284169E+00  0.00000000E+00  0.00000000E+00
  1.33212478E-01  0.00000000E+00  0.00000000E+00 -5.90478984E-02  0.00000000E+00
  0.00000000E+00 -1.32963191E-01  0.00000000E+00  0.00000000E+00 -9.20624638E-01
  0.00000000E+00  0.00000000E+00  2.28055011E+00  0.00000000E+00  0.00000000E+00
  0.00000000E+00  0.00000000E+00  0.00000000E+00  0.00000000E+00  0.00000000E+00
  0.00000000E+00  0.00000000E+00  0.00000000E+00  0.00000000E+00  0.00000000E+00
  0.00000000E+00  0.00000000E+00  0.00000000E+00  0.00000000E+00  0.00000000E+00
  0.00000000E+00  0.00000000E+00  0.00000000E+00  0.00000000E+00  0.00000000E+00
  0.00000000E+00  0.00000000E+00  0.00000000E+00  0.00000000E+00  0.00000000E+00
  0.00000000E+00  0.00000000E+00  0.00000000E+00  0.00000000E+00  0.00000000E+00
  0.00000000E+00  0.00000000E+00  1.00000000E+00  0.00000000E+00  0.00000000E+00
 -1.94363896E-16 -6.44726224E-16  1.63577801E-15  2.63975477E-15 -1.27527495E-14
  1.36200401E-14 -5.17487351E-15  0.00000000E+00  0.00000000E+00  0.00000000E+00
  0.00000000E+00  0.00000000E+00  0.00000000E+00  0.00000000E+00  0.00000000E+00
  0.00000000E+00  0.00000000E+00  0.00000000E+00  0.00000000E+00  0.00000000E+00
  0.00000000E+00  0.00000000E+00  0.00000000E+00  0.00000000E+00  0.00000000E+00
  8.66025404E-01  0.00000000E+00  0.00000000E+00  5.00000000E-01  0.00000000E+00
  0.00000000E+00  0.00000000E+00  0.00000000E+00  0.00000000E+00  0.00000000E+00
  0.00000000E+00  0.00000000E+00  0.00000000E+00  0.00000000E+00  0.00000000E+00
  0.00000000E+00  0.00000000E+00  0.00000000E+00  0.00000000E+00  0.00000000E+00
  0.00000000E+00  0.00000000E+00  0.00000000E+00  0.00000000E+00  0.00000000E+00
  0.00000000E+00  0.00000000E+00  0.00000000E+00  0.00000000E+00  0.00000000E+00
  0.00000000E+00  1.00000000E+00  0.00000000E+00  0.00000000E+00  0.00000000E+00
  0.00000000E+00  0.00000000E+00  0.00000000E+00  0.00000000E+00  0.00000000E+00
  0.00000000E+00  0.00000000E+00  0.00000000E+00  0.00000000E+00  0.00000000E+00
  0.00000000E+00  0.00000000E+00  0.00000000E+00  0.00000000E+00  0.00000000E+00
  0.00000000E+00  0.00000000E+00  0.00000000E+00  0.00000000E+00  0.00000000E+00
  0.00000000E+00  0.00000000E+00  0.00000000E+00  0.00000000E+00  0.00000000E+00
  0.00000000E+00  0.00000000E+00  0.00000000E+00  0.00000000E+00  1.00000000E+00
 -4.43567747E-03 -1.17158769E-02  1.47943201E-02  9.91965263E-02 -3.88179445E-01
  4.93517473E-01 -2.06105644E-01  0.00000000E+00  0.00000000E+00  0.00000000E+00
  0.00000000E+00  0.00000000E+00  0.00000000E+00  0.00000000E+00  0.00000000E+00
  0.00000000E+00  0.00000000E+00  0.00000000E+00  0.00000000E+00  0.00000000E+00
  0.00000000E+00  0.00000000E+00  0.00000000E+00  0.00000000E+00  0.00000000E+00
 -4.91996251E-01  0.00000000E+00  0.00000000E+00  8.52162504E-01  0.00000000E+00
 -3.38506711E-02 -9.31192849E-02  1.54124562E-01  6.23345595E-01 -2.33734595E+00
  2.63651355E+00 -1.04905700E+00  0.00000000E+00  0.00000000E+00  0.00000000E+00
  0.00000000E+00  0.00000000E+00  0.00000000E+00  0.00000000E+00  0.00000000E+00
  0.00000000E+00  0.00000000E+00  0.00000000E+00  0.00000000E+00  0.00000000E+00
  0.00000000E+00  0.00000000E+00  0.00000000E+00  0.00000000E+00  0.00000000E+00
  8.73516699E-02  0.00000000E+00  0.00000000E+00 -1.51297530E-01  0.00000000E+00
  0.00000000E+00  0.00000000E+00  0.00000000E+00  0.00000000E+00  0.00000000E+00
  0.00000000E+00  0.00000000E+00  0.00000000E+00  5.85239613E-01  0.00000000E+00
  0.00000000E+00  4.96605670E-01  0.00000000E+00  0.00000000E+00 -1.24317490E-01
  0.00000000E+00  0.00000000E+00 -1.95856285E+00  0.00000000E+00  0.00000000E+00
  2.13986479E+00  0.00000000E+00  0.00000000E+00 -1.29716829E+00  0.00000000E+00
  0.00000000E+00  0.00000000E+00  0.00000000E+00  0.00000000E+00  0.00000000E+00
  0.00000000E+00  0.00000000E+00  0.00000000E+00  0.00000000E+00  0.00000000E+00
  0.00000000E+00  0.00000000E+00  0.00000000E+00  0.00000000E+00  5.85239613E-01
  0.00000000E+00  0.00000000E+00  4.96605670E-01  0.00000000E+00  0.00000000E+00
 -1.24317490E-01  0.00000000E+00  0.00000000E+00 -1.95856285E+00  0.00000000E+00
  0.00000000E+00  2.13986479E+00  0.00000000E+00  0.00000000E+00 -1.29716829E+00
  0.00000000E+00  0.00000000E+00  0.00000000E+00  0.00000000E+00  0.00000000E+00
  0.00000000E+00  0.00000000E+00  0.00000000E+00  0.00000000E+00  0.00000000E+00
  0.00000000E+00  0.00000000E+00  5.76823209E-01  0.00000000E+00  0.00000000E+00
  4.97423905E-01  0.00000000E+00  0.00000000E+00 -1.24537648E-01  0.00000000E+00
  0.00000000E+00 -1.96013335E+00  0.00000000E+00  0.00000000E+00  2.13273147E+00
  0.00000000E+00  0.00000000E+00 -1.28183263E+00  0.00000000E+00  0.00000000E+00
  0.00000000E+00  0.00000000E+00  0.00000000E+00  0.00000000E+00  0.00000000E+00
  1.18190875E-01  4.80131477E-01 -2.64018379E+00  3.07689775E+00 -1.69057626E+00
  9.19800515E-01 -2.53830778E-01  0.00000000E+00  0.00000000E+00  0.00000000E+00
  0.00000000E+00  0.00000000E+00  0.00000000E+00  0.00000000E+00  0.00000000E+00
  0.00000000E+00  0.00000000E+00  0.00000000E+00  0.00000000E+00  0.00000000E+00
  0.00000000E+00  0.00000000E+00  0.00000000E+00  0.00000000E+00  0.00000000E+00
  8.24901726E-04  0.00000000E+00  0.00000000E+00 -1.42877170E-03  0.00000000E+00
  0.00000000E+00  0.00000000E+00  0.00000000E+00  0.00000000E+00  0.00000000E+00
  0.00000000E+00  0.00000000E+00  0.00000000E+00 -2.55086134E-01  0.00000000E+00
  0.00000000E+00 -2.21846590E+00  0.00000000E+00  0.00000000E+00 -1.76443763E+00
  0.00000000E+00  0.00000000E+00  2.40562759E+00  0.00000000E+00  0.00000000E+00
 -1.23823064E+00  0.00000000E+00  0.00000000E+00  5.75412915E-01  0.00000000E+00
  0.00000000E+00  0.00000000E+00  0.00000000E+00  0.00000000E+00  0.00000000E+00
  0.00000000E+00  0.00000000E+00  0.00000000E+00  0.00000000E+00  0.00000000E+00
  0.00000000E+00  0.00000000E+00  0.00000000E+00  0.00000000E+00 -2.55086134E-01
  0.00000000E+00  0.00000000E+00 -2.21846590E+00  0.00000000E+00  0.00000000E+00
 -1.76443763E+00  0.00000000E+00  0.00000000E+00  2.40562759E+00  0.00000000E+00
  0.00000000E+00 -1.23823064E+00  0.00000000E+00  0.00000000E+00  5.75412915E-01
  0.00000000E+00  0.00000000E+00  0.00000000E+00  0.00000000E+00  0.00000000E+00
  0.00000000E+00  0.00000000E+00  0.00000000E+00  0.00000000E+00  0.00000000E+00
  0.00000000E+00  0.00000000E+00 -2.54773598E-01  0.00000000E+00  0.00000000E+00
 -2.21865068E+00  0.00000000E+00  0.00000000E+00 -1.76436447E+00  0.00000000E+00
  0.00000000E+00  2.40567399E+00  0.00000000E+00  0.00000000E+00 -1.23754229E+00
  0.00000000E+00  0.00000000E+00  5.74795065E-01  0.00000000E+00  0.00000000E+00
  0.00000000E+00  0.00000000E+00  0.00000000E+00  0.00000000E+00  0.00000000E+00
 -1.54160333E+00  1.91464012E+00 -1.43613007E+00  9.57530879E-01 -3.79136710E-01
  1.99445246E-01 -5.54757733E-02  0.00000000E+00  0.00000000E+00  0.00000000E+00
  0.00000000E+00  0.00000000E+00  0.00000000E+00  0.00000000E+00  0.00000000E+00
  0.00000000E+00  0.00000000E+00  0.00000000E+00  0.00000000E+00  0.00000000E+00
  0.00000000E+00  0.00000000E+00  0.00000000E+00  0.00000000E+00  0.00000000E+00
  4.69854050E-06  0.00000000E+00  0.00000000E+00 -8.13811087E-06  0.00000000E+00
Beta MO coefficients                       R   N=         900
  4.11815494E-01  6.53983782E-01  1.46232723E-02 -3.57327953E-03  1.18001972E-03
 -6.10382793E-04  1.68816434E-04  0.00000000E+00  0.00000000E+00  0.00000000E+00
  0.00000000E+00  0.00000000E+00  0.00000000E+00  0.00000000E+00  0.00000000E+00
  0.00000000E+00  0.00000000E+00  0.00000000E+00  0.00000000E+00  0.00000000E+00
  0.00000000E+00  0.00000000E+00  0.00000000E+00  0.00000000E+00  0.00000000E+00
  2.88791211E-06  0.00000000E+00  0.00000000E+00 -5.00201050E-06  0.00000000E+00
 -1.21854943E-01 -3.27838114E-01  5.00011862E-01  6.11538124E-01  5.12026514E-02
 -1.52813854E-02  3.76390554E-03  0.00000000E+00  0.00000000E+00  0.00000000E+00
  0.00000000E+00  0.00000000E+00  0.00000000E+00  0.00000000E+00  0.00000000E+00
  0.00000000E+00  0.00000000E+00  0.00000000E+00  0.00000000E+00  0.00000000E+00
  0.00000000E+00  0.00000000E+00  0.00000000E+00  0.00000000E+00  0.00000000E+00
  2.88957866E-05  0.00000000E+00  0.00000000E+00 -5.00489706E-05  0.00000000E+00
  0.00000000E+00  0.00000000E+00  0.00000000E+00  0.00000000E+00  0.00000000E+00
  0.00000000E+00  0.00000000E+00  0.00000000E+00 -3.49012434E-04  0.00000000E+00
  0.00000000E+00  8.03346698E-01  0.00000000E+00  0.00000000E+00 -2.74338286E-01
  0.00000000E+00  0.00000000E+00  5.38032488E-02  0.00000000E+00  0.00000000E+00
 -2.65525991E-03  0.00000000E+00  0.00000000E+00  8.72905948E-04  0.00000000E+00
  0.00000000E+00  0.00000000E+00  0.00000000E+00  0.00000000E+00  0.00000000E+00
  0.00000000E+00  0.00000000E+00  0.00000000E+00  0.00000000E+00  0.00000000E+00
  0.00000000E+00  0.00000000E+00  0.00000000E+00  0.00000000E+00 -3.49012434E-04
  0.00000000E+00  0.00000000E+00  8.03346698E-01  0.00000000E+00  0.00000000E+00
 -2.74338286E-01  0.00000000E+00  0.00000000E+00  5.38032488E-02  0.00000000E+00
  0.00000000E+00 -2.65525991E-03  0.00000000E+00  0.00000000E+00  8.72905948E-04
  0.00000000E+00  0.00000000E+00  0.00000000E+00  0.00000000E+00  0.00000000E+00
  0.00000000E+00  0.00000000E+00  0.00000000E+00  0.00000000E+00  0.00000000E+00
  0.00000000E+00  0.00000000E+00 -2.15494781E-05  0.00000000E+00  0.00000000E+00
  8.03951035E-01  0.00000000E+00  0.00000000E+00 -2.74763633E-01  0.00000000E+00
  0.00000000E+00  5.15004092E-02  0.00000000E+00  0.00000000E+00 -1.26470041E-03
  0.00000000E+00  0.00000000E+00  1.59756307E-04  0.00000000E+00  0.00000000E+00
  0.00000000E+00  0.00000000E+00  0.00000000E+00  0.00000000E+00  0.00000000E+00
  3.99260290E-02  1.14588557E-01 -2.33250448E-01 -4.38051503E-01  7.21442719E-01
  5.21518342E-01 -2.41683313E-02  0.00000000E+00  0.00000000E+00  0.00000000E+00
  0.00000000E+00  0.00000000E+00  0.00000000E+00  0.00000000E+00  0.00000000E+00
  0.00000000E+00  0.00000000E+00  0.00000000E+00  0.00000000E+00  0.00000000E+00
  0.00000000E+00  0.00000000E+00  0.00000000E+00  0.00000000E+00  0.00000000E+00
 -7.90711824E-03  0.00000000E+00  0.00000000E+00  1.36955305E-02  0.00000000E+00
  0.00000000E+00  0.00000000E+00  0.00000000E+00  0.00000000E+00  0.00000000E+00
  0.00000000E+00  0.00000000E+00 -4.70413822E-02  0.00000000E+00  0.00000000E+00
 -2.45943870E-01  0.00000000E+00  0.00000000E+00  9.29661440E-02  0.00000000E+00
  0.00000000E+00  2.93572417E-01  0.00000000E+00  0.00000000E+00  6.33840793E-01
  0.00000000E+00  0.00000000E+00  2.75858461E-01  0.00000000E+00  0.00000000E+00
  0.00000000E+00  0.00000000E+00  0.00000000E+00  0.00000000E+00  0.00000000E+00
  0.00000000E+00  0.00000000E+00  0.00000000E+00  0.00000000E+00  0.00000000E+00
  0.00000000E+00  0.00000000E+00  0.00000000E+00 -4.76703244E-02  0.00000000E+00
  0.00000000E+00 -2.38437168E-01  0.00000000E+00  0.00000000E+00  9.08919056E-02
  0.00000000E+00  0.00000000E+00  2.78397695E-01  0.00000000E+00  0.00000000E+00
  6.14604015E-01  0.00000000E+00  0.00000000E+00  3.16777360E-01  0.00000000E+00