fubar                                                                   
SP        UPBE1PBE                                                    6-311+G(d,p)        
Number of atoms                            I                1
Info1-9                                    I   N=           9
          11          10           0           0           0         110
           1          18       -1302
Full Title                                 C   N=           1
fubar       
Route                                      C   N=           3
#PBE1PBE/6-311+G(d,p) scf=tight     
Charge                                     I                2
Multiplicity                               I                3
Number of electrons                        I                6
Number of alpha electrons                  I                4
Number of beta electrons                   I                2
Number of basis functions                  I               22
Number of independent functions            I               22
Number of point charges in /Mol/           I                0
Number of translation vectors              I                0
Atomic numbers                             I   N=           1
           8
Nuclear charges                            R   N=           1
  8.00000000E+00
Current cartesian coordinates              R   N=           3
  0.00000000E+00  0.00000000E+00  0.00000000E+00
Number of symbols in /Mol/                 I                0
Int Atom Types                             I   N=           1
           0
Force Field                                I                0
Atom Types                                 C   N=           1
            
MM charges                                 R   N=           1
  0.00000000E+00
Integer atomic weights                     I   N=           1
          16
Real atomic weights                        R   N=           1
  1.59949146E+01
Atom fragment info                         I   N=           1
           0
Atom residue num                           I   N=           1
           0
Nuclear spins                              I   N=           1
           0
Nuclear ZEff                               R   N=           1
 -5.60000000E+00
Nuclear ZNuc                               R   N=           1
  8.00000000E+00
Nuclear QMom                               R   N=           1
  0.00000000E+00
Nuclear GFac                               R   N=           1
  0.00000000E+00
MicOpt                                     I   N=           1
          -1
Number of residues                         I                0
Number of secondary structures             I                0
SymInf integers                            I   N=          26
           1           8           1           1           1           1
          -1          -1          -1           1          -1          -1
          -1           1          -1          -1          -1          -1
           1           1           1          -1           1           1
           1          -1
RotTr to input orientation                 R   N=          12
  0.00000000E+00  0.00000000E+00 -1.00000000E+00  0.00000000E+00  1.00000000E+00
  0.00000000E+00  1.00000000E+00  0.00000000E+00  0.00000000E+00  0.00000000E+00
  0.00000000E+00  0.00000000E+00
Number of contracted shells                I                6
Number of primitive shells                 I               13
Pure/Cartesian d shells                    I                0
Pure/Cartesian f shells                    I                0
Highest angular momentum                   I                2
Largest degree of contraction              I                6
Shell types                                I   N=           6
           0          -1          -1          -1          -1          -2
Number of primitives per shell             I   N=           6
           6           3           1           1           1           1
Shell to atom map                          I   N=           6
           1           1           1           1           1           1
Primitive exponents                        R   N=          13
  8.58850000E+03  1.29723000E+03  2.99296000E+02  8.73771000E+01  2.56789000E+01
  3.74004000E+00  4.21175000E+01  9.62837000E+00  2.85332000E+00  9.05661000E-01
  2.55611000E-01  8.45000000E-02  1.29200000E+00
Contraction coefficients                   R   N=          13
  1.89515008E-03  1.43859006E-02  7.07320031E-02  2.40001011E-01  5.94797026E-01
  2.80802012E-01  1.13889012E-01  9.20811101E-01 -3.27447036E-03  1.00000000E+00
  1.00000000E+00  1.00000000E+00  1.00000000E+00
P(S=P) Contraction coefficients            R   N=          13
  0.00000000E+00  0.00000000E+00  0.00000000E+00  0.00000000E+00  0.00000000E+00
  0.00000000E+00  3.65113974E-02  2.37152983E-01  8.19701941E-01  1.00000000E+00
  1.00000000E+00  1.00000000E+00  0.00000000E+00
Coordinates of each shell                  R   N=          18
  0.00000000E+00  0.00000000E+00  0.00000000E+00  0.00000000E+00  0.00000000E+00
  0.00000000E+00  0.00000000E+00  0.00000000E+00  0.00000000E+00  0.00000000E+00
  0.00000000E+00  0.00000000E+00  0.00000000E+00  0.00000000E+00  0.00000000E+00
  0.00000000E+00  0.00000000E+00  0.00000000E+00
Num ILSW                                   I              100
ILSW                                       I   N=         100
           1           0           0           0           2           0
           0           0           0           0        1009          -1
           5           0           0           0           0           0
           0           0           0           0           0           0
           1           0           0           0           0           0
           0           0      100000           0          -1           0
           0           0           0           0           0           0
           0           0           0           1           0           0
           0 -2000000000           1           0           0           0
           0           1           4          52           0           0
           0           0          13           0           0           0
           0           0           0           1           0           1
           0           0           0           0           0           0
           0           0           0           0           0           0
           0           0           0           0           0           0
           0           0           0           0           0           0
           0           0           0           0
Num RLSW                                   I               52
RLSW                                       R   N=          52
  7.50000000E-01  7.50000000E-01  1.00000000E+00  1.00000000E+00  2.50000000E-01
  0.00000000E+00  0.00000000E+00  1.00000000E+00  0.00000000E+00  0.00000000E+00
  0.00000000E+00  0.00000000E+00  1.00000000E+00  0.00000000E+00  0.00000000E+00
  0.00000000E+00  0.00000000E+00  1.00000000E+00  0.00000000E+00  0.00000000E+00
  0.00000000E+00  0.00000000E+00  1.00000000E+00  0.00000000E+00  0.00000000E+00
  0.00000000E+00  0.00000000E+00  1.00000000E+00  0.00000000E+00  0.00000000E+00
  0.00000000E+00  0.00000000E+00  1.00000000E+00  0.00000000E+00  0.00000000E+00
  0.00000000E+00  0.00000000E+00  0.00000000E+00  1.00000000E+00  1.00000000E+00
  0.00000000E+00  1.00000000E+00  0.00000000E+00  0.00000000E+00  0.00000000E+00
  0.00000000E+00  0.00000000E+00  0.00000000E+00  0.00000000E+00  0.00000000E+00
  0.00000000E+00  0.00000000E+00
MxBond                                     I                1
NBond                                      I   N=           1
           0
IBond                                      I   N=           1
           0
RBond                                      R   N=           1
  0.00000000E+00
Virial Ratio                               R      2.001183003862948E+00
SCF Energy                                 R     -7.320599668658122E+01
Total Energy                               R     -7.320599668658122E+01
S**2                                       R      2.001755410246608E+00
S**2 after annihilation                    R      2.000000001622849E+00
RMS Density                                R      4.927555712975410E-09
Job Status                                 I                1
Nuclear derivative order                   I                0
External E-field                           R   N=          35
  0.00000000E+00  0.00000000E+00  0.00000000E+00  0.00000000E+00  0.00000000E+00
  0.00000000E+00  0.00000000E+00  0.00000000E+00  0.00000000E+00  0.00000000E+00
  0.00000000E+00  0.00000000E+00  0.00000000E+00  0.00000000E+00  0.00000000E+00
  0.00000000E+00  0.00000000E+00  0.00000000E+00  0.00000000E+00  0.00000000E+00
  0.00000000E+00  0.00000000E+00  0.00000000E+00  0.00000000E+00  0.00000000E+00
  0.00000000E+00  0.00000000E+00  0.00000000E+00  0.00000000E+00  0.00000000E+00
  0.00000000E+00  0.00000000E+00  0.00000000E+00  0.00000000E+00  0.00000000E+00
IOpCl                                      I                1
IROHF                                      I                0
Alpha Orbital Energies                     R   N=          22
 -2.09452392E+01 -2.32148082E+00 -1.75937871E+00 -1.75937871E+00 -1.52821620E+00
 -5.11603860E-01 -4.00100950E-01 -4.00100950E-01 -3.92602676E-01  1.26692496E-01
  1.26692496E-01  1.39391443E-01  2.63364995E-01  1.42667312E+00  1.42667312E+00
  1.43803787E+00  1.43803787E+00  1.45865274E+00  3.51606013E+00  3.51606013E+00
  3.55420198E+00  4.81417881E+01
Beta Orbital Energies                      R   N=          22
 -2.08735702E+01 -2.11334451E+00 -1.45448348E+00 -1.35043873E+00 -1.35043873E+00
 -4.80099812E-01 -3.77745667E-01 -3.61752088E-01 -3.61752088E-01  1.61838354E-01
  1.96122373E-01  1.96122373E-01  3.28159164E-01  1.54487004E+00  1.56982122E+00
  1.56982122E+00  1.64200468E+00  1.64200468E+00  3.60296432E+00  3.68733072E+00
  3.68733072E+00  4.82025423E+01
Alpha MO coefficients                      R   N=         484
  5.50929326E-01  4.70645970E-01  0.00000000E+00  0.00000000E+00  0.00000000E+00
  1.11686279E-02  0.00000000E+00  0.00000000E+00  0.00000000E+00 -5.06834239E-03
  0.00000000E+00  0.00000000E+00  0.00000000E+00  1.86445084E-03  0.00000000E+00
  0.00000000E+00  0.00000000E+00 -4.95930794E-04  0.00000000E+00  0.00000000E+00
 -7.34548405E-16  0.00000000E+00 -1.45532548E-01 -2.38524241E-01  0.00000000E+00
  0.00000000E+00  0.00000000E+00  8.19916503E-01  0.00000000E+00  0.00000000E+00
  0.00000000E+00  3.26294898E-01  0.00000000E+00  0.00000000E+00  0.00000000E+00
 -3.62489813E-02  0.00000000E+00  0.00000000E+00  0.00000000E+00 -8.55287710E-03
  0.00000000E+00  0.00000000E+00 -1.56776693E-16  0.00000000E+00  0.00000000E+00
  0.00000000E+00  4.04311654E-01  0.00000000E+00  0.00000000E+00  0.00000000E+00
  5.75830137E-01  0.00000000E+00  0.00000000E+00  0.00000000E+00  2.13477796E-01
  0.00000000E+00  0.00000000E+00  0.00000000E+00 -2.25985005E-02  0.00000000E+00
  0.00000000E+00  0.00000000E+00  0.00000000E+00  0.00000000E+00  0.00000000E+00
  0.00000000E+00  0.00000000E+00  0.00000000E+00  0.00000000E+00  4.04311654E-01
  0.00000000E+00  0.00000000E+00  0.00000000E+00  5.75830137E-01  0.00000000E+00
  0.00000000E+00  0.00000000E+00  2.13477796E-01  0.00000000E+00  0.00000000E+00
  0.00000000E+00 -2.25985005E-02  0.00000000E+00  0.00000000E+00  0.00000000E+00
  0.00000000E+00  0.00000000E+00  0.00000000E+00  0.00000000E+00  0.00000000E+00
  0.00000000E+00  0.00000000E+00  3.82358287E-01  0.00000000E+00  0.00000000E+00
  0.00000000E+00  5.67737699E-01  0.00000000E+00  0.00000000E+00  0.00000000E+00
  2.52213607E-01  0.00000000E+00  0.00000000E+00  0.00000000E+00 -2.34246902E-02
  0.00000000E+00  0.00000000E+00  0.00000000E+00  0.00000000E+00  0.00000000E+00
  5.26366316E-02  9.36839142E-02  0.00000000E+00  0.00000000E+00  0.00000000E+00
 -4.97622082E-01  0.00000000E+00  0.00000000E+00  0.00000000E+00 -2.60005093E-01
  0.00000000E+00  0.00000000E+00  0.00000000E+00  1.24388412E+00  0.00000000E+00
  0.00000000E+00  0.00000000E+00  2.39161473E-03  0.00000000E+00  0.00000000E+00
  4.30361322E-17  0.00000000E+00  0.00000000E+00  0.00000000E+00  0.00000000E+00
 -1.54162889E-01  0.00000000E+00  0.00000000E+00  0.00000000E+00 -2.47647918E-01
  0.00000000E+00  0.00000000E+00  0.00000000E+00  1.60528467E-01  0.00000000E+00
  0.00000000E+00  0.00000000E+00  9.05787733E-01  0.00000000E+00  0.00000000E+00
  0.00000000E+00  0.00000000E+00  0.00000000E+00  0.00000000E+00  0.00000000E+00
  0.00000000E+00 -1.54162889E-01  0.00000000E+00  0.00000000E+00  0.00000000E+00
 -2.47647918E-01  0.00000000E+00  0.00000000E+00  0.00000000E+00  1.60528467E-01
  0.00000000E+00  0.00000000E+00  0.00000000E+00  9.05787733E-01  0.00000000E+00
  0.00000000E+00  0.00000000E+00  0.00000000E+00  0.00000000E+00  0.00000000E+00
  0.00000000E+00  0.00000000E+00  0.00000000E+00  0.00000000E+00  0.00000000E+00
 -1.55997707E-01  0.00000000E+00  0.00000000E+00  0.00000000E+00 -2.59184888E-01
  0.00000000E+00  0.00000000E+00  0.00000000E+00  1.28930476E-01  0.00000000E+00
  0.00000000E+00  0.00000000E+00  9.24513939E-01  0.00000000E+00  0.00000000E+00
  0.00000000E+00  0.00000000E+00  0.00000000E+00  0.00000000E+00  0.00000000E+00
  0.00000000E+00 -2.43184050E-01  0.00000000E+00  0.00000000E+00  0.00000000E+00
 -5.85381369E-01  0.00000000E+00  0.00000000E+00  0.00000000E+00  1.68752670E+00
  0.00000000E+00  0.00000000E+00  0.00000000E+00 -1.14816081E+00  0.00000000E+00
  0.00000000E+00  0.00000000E+00  0.00000000E+00  0.00000000E+00  0.00000000E+00
  0.00000000E+00  0.00000000E+00 -2.43184050E-01  0.00000000E+00  0.00000000E+00
  0.00000000E+00 -5.85381369E-01  0.00000000E+00  0.00000000E+00  0.00000000E+00
  1.68752670E+00  0.00000000E+00  0.00000000E+00  0.00000000E+00 -1.14816081E+00
  0.00000000E+00  0.00000000E+00  0.00000000E+00  0.00000000E+00  0.00000000E+00
  0.00000000E+00  0.00000000E+00  0.00000000E+00  0.00000000E+00  0.00000000E+00
  0.00000000E+00 -2.47374811E-01  0.00000000E+00  0.00000000E+00  0.00000000E+00
 -6.15128389E-01  0.00000000E+00  0.00000000E+00  0.00000000E+00  1.69049074E+00
  0.00000000E+00  0.00000000E+00  0.00000000E+00 -1.13441561E+00  0.00000000E+00
  0.00000000E+00  0.00000000E+00  0.00000000E+00  0.00000000E+00  1.03127213E-01
  2.03700954E-01  0.00000000E+00  0.00000000E+00  0.00000000E+00 -1.65044996E+00
  0.00000000E+00  0.00000000E+00  0.00000000E+00  2.68564574E+00  0.00000000E+00
  0.00000000E+00  0.00000000E+00 -1.47591388E+00  0.00000000E+00  0.00000000E+00
  0.00000000E+00  6.30087169E-03  0.00000000E+00  0.00000000E+00  1.24911953E-15
  0.00000000E+00  0.00000000E+00  0.00000000E+00  0.00000000E+00  0.00000000E+00
  0.00000000E+00  0.00000000E+00  0.00000000E+00  0.00000000E+00  0.00000000E+00
  0.00000000E+00  0.00000000E+00  0.00000000E+00  0.00000000E+00  0.00000000E+00
  0.00000000E+00  0.00000000E+00  0.00000000E+00  0.00000000E+00  0.00000000E+00
  0.00000000E+00  0.00000000E+00  1.00000000E+00 -1.76639211E-16 -2.79582197E-16
  0.00000000E+00  0.00000000E+00  0.00000000E+00  1.99549225E-15  0.00000000E+00
  0.00000000E+00  0.00000000E+00 -2.29772321E-15  0.00000000E+00  0.00000000E+00
  0.00000000E+00  1.12561705E-15  0.00000000E+00  0.00000000E+00  0.00000000E+00
  1.80237839E-14  0.00000000E+00  0.00000000E+00  1.00000000E+00  0.00000000E+00
  0.00000000E+00  0.00000000E+00  0.00000000E+00  0.00000000E+00  0.00000000E+00
  0.00000000E+00  0.00000000E+00  0.00000000E+00  0.00000000E+00  0.00000000E+00
  0.00000000E+00  0.00000000E+00  0.00000000E+00  0.00000000E+00  0.00000000E+00
  0.00000000E+00  0.00000000E+00  0.00000000E+00  1.00000000E+00  0.00000000E+00
  0.00000000E+00  0.00000000E+00  0.00000000E+00  0.00000000E+00  0.00000000E+00
  0.00000000E+00  0.00000000E+00  0.00000000E+00  0.00000000E+00  0.00000000E+00
  0.00000000E+00  0.00000000E+00  0.00000000E+00  0.00000000E+00  0.00000000E+00
  0.00000000E+00  0.00000000E+00  0.00000000E+00  0.00000000E+00  0.00000000E+00
  0.00000000E+00  1.00000000E+00  0.00000000E+00  0.00000000E+00 -1.67027233E-03
 -3.39431921E-03  0.00000000E+00  0.00000000E+00  0.00000000E+00  1.86173087E-02
  0.00000000E+00  0.00000000E+00  0.00000000E+00 -1.35206041E-02  0.00000000E+00
  0.00000000E+00  0.00000000E+00  6.01909129E-03  0.00000000E+00  0.00000000E+00
  0.00000000E+00  9.99940588E-01  0.00000000E+00  0.00000000E+00 -1.82473666E-14
  0.00000000E+00  0.00000000E+00  0.00000000E+00  0.00000000E+00 -1.24752572E+00
  0.00000000E+00  0.00000000E+00  0.00000000E+00  1.57523969E+00  0.00000000E+00
  0.00000000E+00  0.00000000E+00 -9.51058998E-01  0.00000000E+00  0.00000000E+00
  0.00000000E+00  3.62196755E-01  0.00000000E+00  0.00000000E+00  0.00000000E+00
  0.00000000E+00  0.00000000E+00  0.00000000E+00  0.00000000E+00  0.00000000E+00
 -1.24752572E+00  0.00000000E+00  0.00000000E+00  0.00000000E+00  1.57523969E+00
  0.00000000E+00  0.00000000E+00  0.00000000E+00 -9.51058998E-01  0.00000000E+00
  0.00000000E+00  0.00000000E+00  3.62196755E-01  0.00000000E+00  0.00000000E+00
  0.00000000E+00  0.00000000E+00  0.00000000E+00  0.00000000E+00  0.00000000E+00
  0.00000000E+00  0.00000000E+00  0.00000000E+00  0.00000000E+00 -1.25338166E+00
  0.00000000E+00  0.00000000E+00  0.00000000E+00  1.56495221E+00  0.00000000E+00
  0.00000000E+00  0.00000000E+00 -9.41067497E-01  0.00000000E+00  0.00000000E+00
  0.00000000E+00  3.58117761E-01  0.00000000E+00  0.00000000E+00  0.00000000E+00
  0.00000000E+00  0.00000000E+00 -2.24585187E+00  2.33053331E+00  0.00000000E+00
  0.00000000E+00  0.00000000E+00 -2.51549387E-01  0.00000000E+00  0.00000000E+00
  0.00000000E+00  2.32454021E-01  0.00000000E+00  0.00000000E+00  0.00000000E+00
 -9.30291905E-02  0.00000000E+00  0.00000000E+00  0.00000000E+00  3.42871998E-05
  0.00000000E+00  0.00000000E+00 -1.00312843E-17  0.00000000E+00
Beta MO coefficients                       R   N=         484
  5.52823675E-01  4.70039864E-01  0.00000000E+00  0.00000000E+00  0.00000000E+00
  7.23861470E-03  0.00000000E+00  0.00000000E+00  0.00000000E+00 -3.18337228E-03
  0.00000000E+00  0.00000000E+00  0.00000000E+00  1.15050855E-03  0.00000000E+00
  0.00000000E+00  0.00000000E+00  4.09113510E-04  0.00000000E+00  0.00000000E+00
  2.54571755E-16  0.00000000E+00 -1.41792115E-01 -2.30371523E-01  0.00000000E+00
  0.00000000E+00  0.00000000E+00  7.75868429E-01  0.00000000E+00  0.00000000E+00
  0.00000000E+00  3.74040669E-01  0.00000000E+00  0.00000000E+00  0.00000000E+00
 -3.90391635E-02  0.00000000E+00  0.00000000E+00  0.00000000E+00  2.14529541E-02
  0.00000000E+00  0.00000000E+00 -8.84557842E-17  0.00000000E+00  0.00000000E+00
  0.00000000E+00  0.00000000E+00  0.00000000E+00  3.77840568E-01  0.00000000E+00
  0.00000000E+00  0.00000000E+00  5.58713367E-01  0.00000000E+00  0.00000000E+00
  0.00000000E+00  2.70322518E-01  0.00000000E+00  0.00000000E+00  0.00000000E+00
 -2.36202370E-02  0.00000000E+00  0.00000000E+00  0.00000000E+00  0.00000000E+00
  0.00000000E+00  0.00000000E+00  0.00000000E+00  0.00000000E+00  3.70096260E-01
  0.00000000E+00  0.00000000E+00  0.00000000E+00  5.43608602E-01  0.00000000E+00
  0.00000000E+00  0.00000000E+00  2.99353698E-01  0.00000000E+00  0.00000000E+00
  0.00000000E+00 -2.24608567E-02  0.00000000E+00  0.00000000E+00  0.00000000E+00
  0.00000000E+00  0.00000000E+00  0.00000000E+00  0.00000000E+00  0.00000000E+00
  3.70096260E-01  0.00000000E+00  0.00000000E+00  0.00000000E+00  5.43608602E-01
  0.00000000E+00  0.00000000E+00  0.00000000E+00  2.99353698E-01  0.00000000E+00
  0.00000000E+00  0.00000000E+00 -2.24608567E-02  0.00000000E+00  0.00000000E+00
  0.00000000E+00  0.00000000E+00  0.00000000E+00  0.00000000E+00  0.00000000E+00
  5.16357161E-02  9.05213523E-02  0.00000000E+00  0.00000000E+00  0.00000000E+00
 -4.53402308E-01  0.00000000E+00  0.00000000E+00  0.00000000E+00 -3.65052821E-01
  0.00000000E+00  0.00000000E+00  0.00000000E+00  1.29768329E+00  0.00000000E+00
  0.00000000E+00  0.00000000E+00 -6.34320963E-03  0.00000000E+00  0.00000000E+00
 -1.48200664E-17  0.00000000E+00  0.00000000E+00  0.00000000E+00  0.00000000E+00
  0.00000000E+00 -1.53924733E-01  0.00000000E+00  0.00000000E+00  0.00000000E+00
 -2.53979561E-01  0.00000000E+00  0.00000000E+00  0.00000000E+00  9.05147612E-02
  0.00000000E+00  0.00000000E+00  0.00000000E+00  9.48545183E-01  0.00000000E+00
  0.00000000E+00  0.00000000E+00  0.00000000E+00  0.00000000E+00  0.00000000E+00
  0.00000000E+00 -1.50827283E-01  0.00000000E+00  0.00000000E+00  0.00000000E+00
 -2.46316905E-01  0.00000000E+00  0.00000000E+00  0.00000000E+00  3.01834537E-02
  0.00000000E+00  0.00000000E+00  0.00000000E+00  9.84912538E-01  0.00000000E+00
  0.00000000E+00  0.00000000E+00  0.00000000E+00  0.00000000E+00  0.00000000E+00
  0.00000000E+00  0.00000000E+00  0.00000000E+00  0.00000000E+00 -1.50827283E-01
  0.00000000E+00  0.00000000E+00  0.00000000E+00 -2.46316905E-01  0.00000000E+00
  0.00000000E+00  0.00000000E+00  3.01834537E-02  0.00000000E+00  0.00000000E+00
  0.00000000E+00  9.84912538E-01  0.00000000E+00  0.00000000E+00  0.00000000E+00
  0.00000000E+00  0.00000000E+00  0.00000000E+00  0.00000000E+00  0.00000000E+00
  0.00000000E+00  0.00000000E+00 -2.50002723E-01  0.00000000E+00  0.00000000E+00
  0.00000000E+00 -6.31889017E-01  0.00000000E+00  0.00000000E+00  0.00000000E+00
  1.69359058E+00  0.00000000E+00  0.00000000E+00  0.00000000E+00 -1.11539501E+00
  0.00000000E+00  0.00000000E+00  0.00000000E+00  0.00000000E+00  0.00000000E+00
  0.00000000E+00  0.00000000E+00  0.00000000E+00 -2.53921811E-01  0.00000000E+00
  0.00000000E+00  0.00000000E+00 -6.58512891E-01  0.00000000E+00  0.00000000E+00
  0.00000000E+00  1.69630839E+00  0.00000000E+00  0.00000000E+00  0.00000000E+00
 -1.08498372E+00  0.00000000E+00  0.00000000E+00  0.00000000E+00  0.00000000E+00
  0.00000000E+00  0.00000000E+00  0.00000000E+00  0.00000000E+00 -2.53921811E-01
  0.00000000E+00  0.00000000E+00  0.00000000E+00 -6.58512891E-01  0.00000000E+00
  0.00000000E+00  0.00000000E+00  1.69630839E+00  0.00000000E+00  0.00000000E+00
  0.00000000E+00 -1.08498372E+00  0.00000000E+00  0.00000000E+00  0.00000000E+00
  0.00000000E+00  0.00000000E+00  0.00000000E+00  0.00000000E+00  1.07467568E-01
  2.11047422E-01  0.00000000E+00  0.00000000E+00  0.00000000E+00 -1.68378294E+00
  0.00000000E+00  0.00000000E+00  0.00000000E+00  2.66710466E+00  0.00000000E+00
  0.00000000E+00  0.00000000E+00 -1.42876883E+00  0.00000000E+00  0.00000000E+00
  0.00000000E+00 -1.05584493E-02  0.00000000E+00  0.00000000E+00 -1.91136673E-17
  0.00000000E+00  4.88043693E-03  6.93059262E-03  0.00000000E+00  0.00000000E+00
  0.00000000E+00 -3.72457395E-02  0.00000000E+00  0.00000000E+00  0.00000000E+00
  1.77651099E-02  0.00000000E+00  0.00000000E+00  0.00000000E+00 -5.99400642E-03
  0.00000000E+00  0.00000000E+00  0.00000000E+00  9.99693860E-01  0.00000000E+00
  0.00000000E+00  2.97671337E-15  0.00000000E+00  0.00000000E+00  0.00000000E+00
  0.00000000E+00  0.00000000E+00  0.00000000E+00  0.00000000E+00  0.00000000E+00
  0.00000000E+00  0.00000000E+00  0.00000000E+00  0.00000000E+00  0.00000000E+00
  0.00000000E+00  0.00000000E+00  0.00000000E+00  0.00000000E+00  0.00000000E+00
  0.00000000E+00  1.00000000E+00  0.00000000E+00  0.00000000E+00  0.00000000E+00
  0.00000000E+00  0.00000000E+00  0.00000000E+00  0.00000000E+00  0.00000000E+00
  0.00000000E+00  0.00000000E+00  0.00000000E+00  0.00000000E+00  0.00000000E+00
  0.00000000E+00  0.00000000E+00  0.00000000E+00  0.00000000E+00  0.00000000E+00
  0.00000000E+00  0.00000000E+00  0.00000000E+00  0.00000000E+00  1.00000000E+00
  0.00000000E+00  0.00000000E+00  0.00000000E+00  0.00000000E+00  0.00000000E+00
  0.00000000E+00  0.00000000E+00  0.00000000E+00  0.00000000E+00  0.00000000E+00
  0.00000000E+00  0.00000000E+00  0.00000000E+00  0.00000000E+00  0.00000000E+00
  0.00000000E+00  0.00000000E+00  0.00000000E+00  0.00000000E+00  0.00000000E+00
  0.00000000E+00  0.00000000E+00  0.00000000E+00  1.00000000E+00 -1.99528469E-17
  1.12922176E-16  0.00000000E+00  0.00000000E+00  0.00000000E+00 -1.29923838E-15
  0.00000000E+00  0.00000000E+00  0.00000000E+00  2.33528128E-15  0.00000000E+00
  0.00000000E+00  0.00000000E+00 -1.25096031E-15  0.00000000E+00  0.00000000E+00
  0.00000000E+00 -2.57967812E-15  0.00000000E+00  0.00000000E+00  1.00000000E+00
  0.00000000E+00  0.00000000E+00  0.00000000E+00  0.00000000E+00  0.00000000E+00
 -1.25448609E+00  0.00000000E+00  0.00000000E+00  0.00000000E+00  1.56237361E+00
  0.00000000E+00  0.00000000E+00  0.00000000E+00 -9.34925410E-01  0.00000000E+00
  0.00000000E+00  0.00000000E+00  3.54992863E-01  0.00000000E+00  0.00000000E+00
  0.00000000E+00  0.00000000E+00  0.00000000E+00  0.00000000E+00  0.00000000E+00
  0.00000000E+00 -1.25638236E+00  0.00000000E+00  0.00000000E+00  0.00000000E+00
  1.55792802E+00  0.00000000E+00  0.00000000E+00  0.00000000E+00 -9.24995096E-01
  0.00000000E+00  0.00000000E+00  0.00000000E+00  3.50249853E-01  0.00000000E+00
  0.00000000E+00  0.00000000E+00  0.00000000E+00  0.00000000E+00  0.00000000E+00
  0.00000000E+00  0.00000000E+00 -1.25638236E+00  0.00000000E+00  0.00000000E+00
  0.00000000E+00  1.55792802E+00  0.00000000E+00  0.00000000E+00  0.00000000E+00
 -9.24995096E-01  0.00000000E+00  0.00000000E+00  0.00000000E+00  3.50249853E-01
  0.00000000E+00  0.00000000E+00  0.00000000E+00  0.00000000E+00  0.00000000E+00
  0.00000000E+00  0.00000000E+00 -2.24544065E+00  2.33093920E+00  0.00000000E+00
  0.00000000E+00  0.00000000E+00 -2.52020301E-01  0.00000000E+00  0.00000000E+00
  0.00000000E+00  2.32517613E-01  0.00000000E+00  0.00000000E+00  0.00000000E+00
 -9.30269896E-02  0.00000000E+00  0.00000000E+00  0.00000000E+00  2.67664028E-04
  0.00000000E+00  0.00000000E+00 -1.02165637E-17  0.00000000E+00
Orthonormal basis                          R   N=         484
  2.40254389E-01  2.48108308E-01  0.00000000E+00  0.00000000E+00  0.00000000E+00
  3.12714494E-01  0.00000000E+00  0.00000000E+00  0.00000000E+00  3.09388206E-01
  0.00000000E+00  0.00000000E+00  0.00000000E+00  2.48983539E-01  0.00000000E+00
  0.00000000E+00  0.00000000E+00  0.00000000E+00  0.00000000E+00  0.00000000E+00
  0.00000000E+00  0.00000000E+00  4.37612213E-01  4.31375527E-01  0.00000000E+00
  0.00000000E+00  0.00000000E+00 -8.77440131E-02  0.00000000E+00  0.00000000E+00
  0.00000000E+00 -3.15852006E-01  0.00000000E+00  0.00000000E+00  0.00000000E+00
 -3.49446382E-01  0.00000000E+00  0.00000000E+00  0.00000000E+00  0.00000000E+00
  0.00000000E+00  0.00000000E+00  0.00000000E+00  0.00000000E+00  0.00000000E+00
  0.00000000E+00  0.00000000E+00  0.00000000E+00  0.00000000E+00  0.00000000E+00
  0.00000000E+00  0.00000000E+00  0.00000000E+00  0.00000000E+00  0.00000000E+00
  0.00000000E+00  0.00000000E+00  0.00000000E+00  0.00000000E+00  0.00000000E+00
  0.00000000E+00  1.00000000E+00  0.00000000E+00  0.00000000E+00  0.00000000E+00
  0.00000000E+00  0.00000000E+00  0.00000000E+00  0.00000000E+00  0.00000000E+00
  0.00000000E+00  0.00000000E+00  0.00000000E+00  0.00000000E+00  0.00000000E+00
  0.00000000E+00  0.00000000E+00  0.00000000E+00  0.00000000E+00  0.00000000E+00
  0.00000000E+00  0.00000000E+00  0.00000000E+00  0.00000000E+00  0.00000000E+00
  0.00000000E+00  1.00000000E+00  0.00000000E+00 -2.92457799E-01 -1.77881569E-01
  0.00000000E+00  0.00000000E+00  0.00000000E+00  1.01803681E+00  0.00000000E+00
  0.00000000E+00  0.00000000E+00  6.58257692E-02  0.00000000E+00  0.00000000E+00
  0.00000000E+00 -9.00952799E-01  0.00000000E+00  0.00000000E+00  0.00000000E+00
  0.00000000E+00  0.00000000E+00  0.00000000E+00  0.00000000E+00  0.00000000E+00
  2.02231300E+00 -1.95618674E+00  0.00000000E+00  0.00000000E+00  0.00000000E+00
 -4.83547008E-01  0.00000000E+00  0.00000000E+00  0.00000000E+00  1.08069896E+00
  0.00000000E+00  0.00000000E+00  0.00000000E+00 -7.37666230E-01  0.00000000E+00
  0.00000000E+00  0.00000000E+00  0.00000000E+00  0.00000000E+00  0.00000000E+00
  0.00000000E+00  0.00000000E+00 -9.78495787E-01  1.28612528E+00  0.00000000E+00
  0.00000000E+00  0.00000000E+00 -1.52706199E+00  0.00000000E+00  0.00000000E+00
  0.00000000E+00  2.46440269E+00  0.00000000E+00  0.00000000E+00  0.00000000E+00
 -1.48175728E+00  0.00000000E+00  0.00000000E+00  0.00000000E+00  0.00000000E+00
  0.00000000E+00  0.00000000E+00  0.00000000E+00  0.00000000E+00  0.00000000E+00
  0.00000000E+00  0.00000000E+00  0.00000000E+00  0.00000000E+00  0.00000000E+00
  0.00000000E+00  0.00000000E+00  0.00000000E+00  0.00000000E+00  0.00000000E+00
  0.00000000E+00  0.00000000E+00  0.00000000E+00  0.00000000E+00  0.00000000E+00
  0.00000000E+00  0.00000000E+00  0.00000000E+00  0.00000000E+00  0.00000000E+00
  1.00000000E+00  0.00000000E+00  0.00000000E+00  0.00000000E+00  0.00000000E+00
  0.00000000E+00  0.00000000E+00  0.00000000E+00  0.00000000E+00  0.00000000E+00
  0.00000000E+00  0.00000000E+00  0.00000000E+00  0.00000000E+00  0.00000000E+00
  0.00000000E+00  0.00000000E+00  0.00000000E+00  0.00000000E+00  1.00000000E+00
  0.00000000E+00  0.00000000E+00  0.00000000E+00  0.00000000E+00  0.00000000E+00
  0.00000000E+00  0.00000000E+00  0.00000000E+00  0.00000000E+00  0.00000000E+00
  0.00000000E+00  0.00000000E+00  0.00000000E+00  0.00000000E+00  0.00000000E+00
  0.00000000E+00  0.00000000E+00  0.00000000E+00  0.00000000E+00  0.00000000E+00
  0.00000000E+00  0.00000000E+00  1.00000000E+00  0.00000000E+00  0.00000000E+00
  0.00000000E+00  0.00000000E+00  0.00000000E+00  0.00000000E+00  2.55873991E-01
  0.00000000E+00  0.00000000E+00  0.00000000E+00  3.72870611E-01  0.00000000E+00
  0.00000000E+00  0.00000000E+00  3.88870282E-01  0.00000000E+00  0.00000000E+00
  0.00000000E+00  2.95582357E-01  0.00000000E+00  0.00000000E+00  0.00000000E+00
  0.00000000E+00  0.00000000E+00  0.00000000E+00  0.00000000E+00  0.00000000E+00
  0.00000000E+00  6.03851608E-01  0.00000000E+00  0.00000000E+00  0.00000000E+00
  3.22837419E-01  0.00000000E+00  0.00000000E+00  0.00000000E+00 -2.97177247E-01