fubar                                                                   
SP        UPBE1PBE                                                    6-311+G(d,p)        
Number of atoms                            I                1
Info1-9                                    I   N=           9
          11          10           0           0           0         110
           1          18       -1302
Full Title                                 C   N=           1
fubar       
Route                                      C   N=           3
#PBE1PBE/6-311+G(d,p) scf=tight     
Charge                                     I                1
Multiplicity                               I                3
Number of electrons                        I               34
Number of alpha electrons                  I               18
Number of beta electrons                   I               16
Number of basis functions                  I               48
Number of independent functions            I               48
Number of point charges in /Mol/           I                0
Number of translation vectors              I                0
Atomic numbers                             I   N=           1
          35
Nuclear charges                            R   N=           1
  3.50000000E+01
Current cartesian coordinates              R   N=           3
  0.00000000E+00  0.00000000E+00  0.00000000E+00
Number of symbols in /Mol/                 I                0
Int Atom Types                             I   N=           1
           0
Force Field                                I                0
Atom Types                                 C   N=           1
            
MM charges                                 R   N=           1
  0.00000000E+00
Integer atomic weights                     I   N=           1
          79
Real atomic weights                        R   N=           1
  7.89183361E+01
Atom fragment info                         I   N=           1
           0
Atom residue num                           I   N=           1
           0
Nuclear spins                              I   N=           1
           3
Nuclear ZEff                               R   N=           1
 -2.45000000E+01
Nuclear ZNuc                               R   N=           1
  3.50000000E+01
Nuclear QMom                               R   N=           1
  3.13000000E+01
Nuclear GFac                               R   N=           1
  2.10639900E+00
MicOpt                                     I   N=           1
          -1
Number of residues                         I                0
Number of secondary structures             I                0
SymInf integers                            I   N=          26
           1           8           1           1           1           1
          -1          -1          -1           1          -1          -1
          -1           1          -1          -1          -1          -1
           1           1           1          -1           1           1
           1          -1
RotTr to input orientation                 R   N=          12
  0.00000000E+00  0.00000000E+00 -1.00000000E+00  0.00000000E+00  1.00000000E+00
  0.00000000E+00  1.00000000E+00  0.00000000E+00  0.00000000E+00  0.00000000E+00
  0.00000000E+00  0.00000000E+00
Number of contracted shells                I               19
Number of primitive shells                 I               35
Pure/Cartesian d shells                    I                0
Pure/Cartesian f shells                    I                0
Highest angular momentum                   I                2
Largest degree of contraction              I                6
Shell types                                I   N=          19
           0           0           0           0           0           0
           0           0          -1           1           1           1
           1           1           1           1          -2          -2
          -2
Number of primitives per shell             I   N=          19
           6           3           1           1           1           1
           1           1           1           3           3           3
           1           1           1           1           4           1
           1
Shell to atom map                          I   N=          19
           1           1           1           1           1           1
           1           1           1           1           1           1
           1           1           1           1           1           1
           1
Primitive exponents                        R   N=          35
  4.39700000E+05  6.60300000E+04  1.51400000E+04  4.31700000E+03  1.41400000E+03
  5.23900000E+02  5.23900000E+02  2.07700000E+02  8.65400000E+01  3.05200000E+01
  1.29800000E+01  4.41200000E+00  1.86200000E+00  3.93200000E-01  1.40000000E-01
  3.50000000E-02  2.95700000E+03  7.00300000E+02  2.24600000E+02  8.25900000E+01
  3.31900000E+01  1.42000000E+01  1.42000000E+01  7.43800000E+00  3.52600000E+00
  1.59500000E+00  8.46200000E-01  3.18600000E-01  1.09600000E-01  1.34800000E+02
  3.63900000E+01  1.21600000E+01  4.34100000E+00  1.53500000E+00  4.51000000E-01
Contraction coefficients                   R   N=          35
  8.12983158E-04  6.28486980E-03  3.19193387E-02  1.28797332E-01  3.94591825E-01
  5.41288786E-01  1.83107648E-01  6.17625795E-01  2.53810600E-01  1.00000000E+00
  1.00000000E+00  1.00000000E+00  1.00000000E+00  1.00000000E+00  1.00000000E+00
  1.00000000E+00  2.22598927E-02  1.80199132E-01  8.62395844E-01  3.43987390E-01
  5.07081411E-01  2.58990506E-01  7.96539352E-02  3.73418448E-01  6.04929885E-01
  1.00000000E+00  1.00000000E+00  1.00000000E+00  1.00000000E+00  1.83093925E-02
  1.34995521E-01  4.26085864E-01  6.04279951E-01  1.00000000E+00  1.00000000E+00
P(S=P) Contraction coefficients            R   N=          35
  0.00000000E+00  0.00000000E+00  0.00000000E+00  0.00000000E+00  0.00000000E+00
  0.00000000E+00  0.00000000E+00  0.00000000E+00  0.00000000E+00  0.00000000E+00
  0.00000000E+00  0.00000000E+00  0.00000000E+00  0.00000000E+00  0.00000000E+00
  1.00000000E+00  0.00000000E+00  0.00000000E+00  0.00000000E+00  0.00000000E+00
  0.00000000E+00  0.00000000E+00  0.00000000E+00  0.00000000E+00  0.00000000E+00
  0.00000000E+00  0.00000000E+00  0.00000000E+00  0.00000000E+00  0.00000000E+00
  0.00000000E+00  0.00000000E+00  0.00000000E+00  0.00000000E+00  0.00000000E+00
Coordinates of each shell                  R   N=          57
  0.00000000E+00  0.00000000E+00  0.00000000E+00  0.00000000E+00  0.00000000E+00
  0.00000000E+00  0.00000000E+00  0.00000000E+00  0.00000000E+00  0.00000000E+00
  0.00000000E+00  0.00000000E+00  0.00000000E+00  0.00000000E+00  0.00000000E+00
  0.00000000E+00  0.00000000E+00  0.00000000E+00  0.00000000E+00  0.00000000E+00
  0.00000000E+00  0.00000000E+00  0.00000000E+00  0.00000000E+00  0.00000000E+00
  0.00000000E+00  0.00000000E+00  0.00000000E+00  0.00000000E+00  0.00000000E+00
  0.00000000E+00  0.00000000E+00  0.00000000E+00  0.00000000E+00  0.00000000E+00
  0.00000000E+00  0.00000000E+00  0.00000000E+00  0.00000000E+00  0.00000000E+00
  0.00000000E+00  0.00000000E+00  0.00000000E+00  0.00000000E+00  0.00000000E+00
  0.00000000E+00  0.00000000E+00  0.00000000E+00  0.00000000E+00  0.00000000E+00
  0.00000000E+00  0.00000000E+00  0.00000000E+00  0.00000000E+00  0.00000000E+00
  0.00000000E+00  0.00000000E+00
Num ILSW                                   I              100
ILSW                                       I   N=         100
           1           0           0           0           2           0
           0           0           0           0        1009          -1
           5           0           0           0           0           0
           0           0           0           0           0           0
           1           0           0           0           0           0
           0           0      100000           0          -1           0
           0           0           0           0           0           0
           0           0           0           1           0           0
           0 -2000000000           1           0           0           0
           0           1           4          52           0           0
           0           0          13           0           0           0
           0           0           0           1           0           1
           0           0           0           0           0           0
           0           0           0           0           0           0
           0           0           0           0           0           0
           0           0           0           0           0           0
           0           0           0           0
Num RLSW                                   I               52
RLSW                                       R   N=          52
  7.50000000E-01  7.50000000E-01  1.00000000E+00  1.00000000E+00  2.50000000E-01
  0.00000000E+00  0.00000000E+00  1.00000000E+00  0.00000000E+00  0.00000000E+00
  0.00000000E+00  0.00000000E+00  1.00000000E+00  0.00000000E+00  0.00000000E+00
  0.00000000E+00  0.00000000E+00  1.00000000E+00  0.00000000E+00  0.00000000E+00
  0.00000000E+00  0.00000000E+00  1.00000000E+00  0.00000000E+00  0.00000000E+00
  0.00000000E+00  0.00000000E+00  1.00000000E+00  0.00000000E+00  0.00000000E+00
  0.00000000E+00  0.00000000E+00  1.00000000E+00  0.00000000E+00  0.00000000E+00
  0.00000000E+00  0.00000000E+00  0.00000000E+00  1.00000000E+00  1.00000000E+00
  0.00000000E+00  1.00000000E+00  0.00000000E+00  0.00000000E+00  0.00000000E+00
  0.00000000E+00  0.00000000E+00  0.00000000E+00  0.00000000E+00  0.00000000E+00
  0.00000000E+00  0.00000000E+00
MxBond                                     I                1
NBond                                      I   N=           1
           0
IBond                                      I   N=           1
           0
RBond                                      R   N=           1
  0.00000000E+00
Virial Ratio                               R      2.001011692998170E+00
SCF Energy                                 R     -2.573339240951586E+03
Total Energy                               R     -2.573339240951586E+03
S**2                                       R      2.002292663765200E+00
S**2 after annihilation                    R      2.000000841796674E+00
RMS Density                                R      3.627748038631978E-09
Job Status                                 I                1
Nuclear derivative order                   I                0
External E-field                           R   N=          35
  0.00000000E+00  0.00000000E+00  0.00000000E+00  0.00000000E+00  0.00000000E+00
  0.00000000E+00  0.00000000E+00  0.00000000E+00  0.00000000E+00  0.00000000E+00
  0.00000000E+00  0.00000000E+00  0.00000000E+00  0.00000000E+00  0.00000000E+00
  0.00000000E+00  0.00000000E+00  0.00000000E+00  0.00000000E+00  0.00000000E+00
  0.00000000E+00  0.00000000E+00  0.00000000E+00  0.00000000E+00  0.00000000E+00
  0.00000000E+00  0.00000000E+00  0.00000000E+00  0.00000000E+00  0.00000000E+00
  0.00000000E+00  0.00000000E+00  0.00000000E+00  0.00000000E+00  0.00000000E+00
IOpCl                                      I                1
IROHF                                      I                0
Alpha Orbital Energies                     R   N=          48
 -4.83694357E+02 -6.30894671E+01 -5.68702822E+01 -5.68702822E+01 -5.68610023E+01
 -9.22408935E+00 -7.03754872E+00 -7.03754872E+00 -7.01145169E+00 -3.12403218E+00
 -3.12403218E+00 -3.10483780E+00 -3.10483780E+00 -3.09848305E+00 -1.21287112E+00
 -7.45616929E-01 -7.45616929E-01 -6.89872340E-01 -1.85462902E-01 -1.15888413E-01
 -1.15888413E-01 -1.07027783E-01  1.51564063E-01  1.51564063E-01  1.71321105E-01
  1.72199457E-01  1.72199457E-01  2.12569497E-01  2.12569497E-01  2.26257023E-01
  2.28756741E-01  1.58466511E+00  1.58466511E+00  1.62800995E+00  3.71040243E+00
  3.71040243E+00  3.74100578E+00  3.74100578E+00  3.75132971E+00  6.00150962E+00
  7.12274173E+00  7.12274173E+00  7.16354465E+00  4.73906269E+01  2.89602942E+02
  2.89602942E+02  2.89610417E+02  1.02053207E+03
Beta Orbital Energies                      R   N=          48
 -4.83688253E+02 -6.30862824E+01 -5.68621303E+01 -5.68621303E+01 -5.68587120E+01
 -9.21469868E+00 -7.02181364E+00 -7.02181364E+00 -7.00768666E+00 -3.10969786E+00
 -3.10969786E+00 -3.09689142E+00 -3.09689142E+00 -3.09235845E+00 -1.10458592E+00
 -6.55551239E-01 -5.48458534E-01 -5.48458534E-01 -1.68337169E-01 -1.02344999E-01
 -9.82308256E-02 -9.82308256E-02  1.81075266E-01  1.84915359E-01  1.84915359E-01
  2.58911353E-01  2.77738031E-01  2.77738031E-01  2.81352010E-01  2.93328015E-01
  2.93328015E-01  1.64637718E+00  1.64637718E+00  1.64763962E+00  3.75461762E+00
  3.75461762E+00  3.76534505E+00  3.76534505E+00  3.77106365E+00  6.02815264E+00
  7.16430169E+00  7.16430169E+00  7.17655031E+00  4.73995631E+01  2.89613244E+02
  2.89613418E+02  2.89613418E+02  1.02053686E+03
Alpha MO coefficients                      R   N=        2304
  3.90062259E-01  6.74224764E-01  8.75216600E-03 -2.18967307E-03  1.05792922E-03
 -5.16362900E-04  1.65626725E-04 -8.74972115E-05  2.18737623E-05  0.00000000E+00
  0.00000000E+00  0.00000000E+00  0.00000000E+00  0.00000000E+00  0.00000000E+00
  0.00000000E+00  0.00000000E+00  0.00000000E+00  0.00000000E+00  0.00000000E+00
  0.00000000E+00  0.00000000E+00  0.00000000E+00  0.00000000E+00  0.00000000E+00
  0.00000000E+00  0.00000000E+00  0.00000000E+00  0.00000000E+00  0.00000000E+00
  0.00000000E+00  0.00000000E+00  0.00000000E+00  3.66533260E-07  0.00000000E+00
  0.00000000E+00 -6.34854230E-07  0.00000000E+00 -2.04443662E-07  0.00000000E+00
  0.00000000E+00  3.54106808E-07  0.00000000E+00  7.44072300E-08  0.00000000E+00
  0.00000000E+00 -1.28877104E-07  0.00000000E+00 -1.28814353E-01 -3.77010162E-01
  6.30209716E-01  4.96945279E-01  4.79092021E-02 -9.57082296E-03  2.61659905E-03
 -1.37544799E-03  3.41578252E-04  0.00000000E+00  0.00000000E+00  0.00000000E+00
  0.00000000E+00  0.00000000E+00  0.00000000E+00  0.00000000E+00  0.00000000E+00
  0.00000000E+00  0.00000000E+00  0.00000000E+00  0.00000000E+00  0.00000000E+00
  0.00000000E+00  0.00000000E+00  0.00000000E+00  0.00000000E+00  0.00000000E+00
  0.00000000E+00  0.00000000E+00  0.00000000E+00  0.00000000E+00  0.00000000E+00
  0.00000000E+00  5.80562726E-05  0.00000000E+00  0.00000000E+00 -1.00556414E-04
  0.00000000E+00 -2.23179728E-05  0.00000000E+00  0.00000000E+00  3.86558627E-05
  0.00000000E+00  7.50088630E-06  0.00000000E+00  0.00000000E+00 -1.29919162E-05
  0.00000000E+00  0.00000000E+00  0.00000000E+00  0.00000000E+00  0.00000000E+00
  0.00000000E+00  0.00000000E+00  0.00000000E+00  0.00000000E+00  0.00000000E+00
  0.00000000E+00  0.00000000E+00 -3.05861174E-04  0.00000000E+00  0.00000000E+00
  1.26622992E-01  0.00000000E+00  0.00000000E+00  9.23953670E-01  0.00000000E+00
  0.00000000E+00  3.18658743E-02  0.00000000E+00  0.00000000E+00 -1.41956455E-02
  0.00000000E+00  0.00000000E+00  8.60770031E-03  0.00000000E+00  0.00000000E+00
 -2.83587799E-03  0.00000000E+00  0.00000000E+00  1.04349631E-03  0.00000000E+00
  0.00000000E+00  0.00000000E+00  0.00000000E+00  0.00000000E+00  0.00000000E+00
  0.00000000E+00  0.00000000E+00  0.00000000E+00  0.00000000E+00  0.00000000E+00
  0.00000000E+00  0.00000000E+00  0.00000000E+00  0.00000000E+00  0.00000000E+00
  0.00000000E+00  0.00000000E+00  0.00000000E+00  0.00000000E+00  0.00000000E+00
  0.00000000E+00  0.00000000E+00  0.00000000E+00  0.00000000E+00 -3.05861174E-04
  0.00000000E+00  0.00000000E+00  1.26622992E-01  0.00000000E+00  0.00000000E+00
  9.23953670E-01  0.00000000E+00  0.00000000E+00  3.18658743E-02  0.00000000E+00
  0.00000000E+00 -1.41956455E-02  0.00000000E+00  0.00000000E+00  8.60770031E-03
  0.00000000E+00  0.00000000E+00 -2.83587799E-03  0.00000000E+00  0.00000000E+00
  1.04349631E-03  0.00000000E+00  0.00000000E+00  0.00000000E+00  0.00000000E+00
  0.00000000E+00  0.00000000E+00  0.00000000E+00  0.00000000E+00  0.00000000E+00
  0.00000000E+00  0.00000000E+00  0.00000000E+00  0.00000000E+00  0.00000000E+00
  0.00000000E+00  0.00000000E+00  0.00000000E+00  0.00000000E+00  0.00000000E+00
  0.00000000E+00  0.00000000E+00  0.00000000E+00  0.00000000E+00  0.00000000E+00
  0.00000000E+00 -3.03735184E-04  0.00000000E+00  0.00000000E+00  1.26629105E-01
  0.00000000E+00  0.00000000E+00  9.23985267E-01  0.00000000E+00  0.00000000E+00
  3.17746319E-02  0.00000000E+00  0.00000000E+00 -1.41191100E-02  0.00000000E+00
  0.00000000E+00  8.55392158E-03  0.00000000E+00  0.00000000E+00 -2.81612576E-03
  0.00000000E+00  0.00000000E+00  1.03623325E-03  0.00000000E+00  0.00000000E+00
  0.00000000E+00  0.00000000E+00  0.00000000E+00  0.00000000E+00  0.00000000E+00
  0.00000000E+00  0.00000000E+00  0.00000000E+00  0.00000000E+00  0.00000000E+00
  0.00000000E+00  0.00000000E+00  0.00000000E+00  0.00000000E+00  0.00000000E+00
  5.14577905E-02  1.64760302E-01 -4.21279288E-01 -4.57329860E-01  6.64400116E-01
  6.29818149E-01  3.23291077E-02 -1.02440596E-02  2.25103478E-03  0.00000000E+00
  0.00000000E+00  0.00000000E+00  0.00000000E+00  0.00000000E+00  0.00000000E+00
  0.00000000E+00  0.00000000E+00  0.00000000E+00  0.00000000E+00  0.00000000E+00
  0.00000000E+00  0.00000000E+00  0.00000000E+00  0.00000000E+00  0.00000000E+00
  0.00000000E+00  0.00000000E+00  0.00000000E+00  0.00000000E+00  0.00000000E+00
  0.00000000E+00  0.00000000E+00  0.00000000E+00  1.02109836E-03  0.00000000E+00
  0.00000000E+00 -1.76859424E-03  0.00000000E+00  7.59823186E-04  0.00000000E+00
  0.00000000E+00 -1.31605236E-03  0.00000000E+00 -2.21981157E-05  0.00000000E+00
  0.00000000E+00  3.84482642E-05  0.00000000E+00  0.00000000E+00  0.00000000E+00
  0.00000000E+00  0.00000000E+00  0.00000000E+00  0.00000000E+00  0.00000000E+00
  0.00000000E+00  0.00000000E+00  0.00000000E+00 -2.38007550E-06  0.00000000E+00
  0.00000000E+00 -5.23350355E-02  0.00000000E+00  0.00000000E+00 -4.23573822E-01
  0.00000000E+00  0.00000000E+00  8.79971244E-01  0.00000000E+00  0.00000000E+00
  2.47411626E-01  0.00000000E+00  0.00000000E+00  3.09030215E-02  0.00000000E+00
  0.00000000E+00  1.56505503E-03  0.00000000E+00  0.00000000E+00 -6.46197443E-05
  0.00000000E+00  0.00000000E+00  0.00000000E+00  0.00000000E+00  0.00000000E+00
  0.00000000E+00  0.00000000E+00  0.00000000E+00  0.00000000E+00  0.00000000E+00
  0.00000000E+00  0.00000000E+00  0.00000000E+00  0.00000000E+00  0.00000000E+00
  0.00000000E+00  0.00000000E+00  0.00000000E+00  0.00000000E+00  0.00000000E+00
  0.00000000E+00  0.00000000E+00  0.00000000E+00  0.00000000E+00  0.00000000E+00
  0.00000000E+00  0.00000000E+00 -2.38007550E-06  0.00000000E+00  0.00000000E+00
 -5.23350355E-02  0.00000000E+00  0.00000000E+00 -4.23573822E-01  0.00000000E+00
  0.00000000E+00  8.79971244E-01  0.00000000E+00  0.00000000E+00  2.47411626E-01
  0.00000000E+00  0.00000000E+00  3.09030215E-02  0.00000000E+00  0.00000000E+00
  1.56505503E-03  0.00000000E+00  0.00000000E+00 -6.46197443E-05  0.00000000E+00
  0.00000000E+00  0.00000000E+00  0.00000000E+00  0.00000000E+00  0.00000000E+00
  0.00000000E+00  0.00000000E+00  0.00000000E+00  0.00000000E+00  0.00000000E+00
  0.00000000E+00  0.00000000E+00  0.00000000E+00  0.00000000E+00  0.00000000E+00
  0.00000000E+00  0.00000000E+00  0.00000000E+00  0.00000000E+00  0.00000000E+00
  0.00000000E+00  0.00000000E+00  0.00000000E+00  7.42932496E-06  0.00000000E+00
  0.00000000E+00 -5.23822082E-02  0.00000000E+00  0.00000000E+00 -4.23945425E-01
  0.00000000E+00  0.00000000E+00  8.81266097E-01  0.00000000E+00  0.00000000E+00
  2.46848416E-01  0.00000000E+00  0.00000000E+00  2.98099230E-02  0.00000000E+00
  0.00000000E+00  1.63605908E-03  0.00000000E+00  0.00000000E+00 -9.72689849E-05
  0.00000000E+00  0.00000000E+00  0.00000000E+00  0.00000000E+00  0.00000000E+00
  0.00000000E+00  0.00000000E+00  0.00000000E+00  0.00000000E+00  0.00000000E+00
  0.00000000E+00  0.00000000E+00  0.00000000E+00  0.00000000E+00  0.00000000E+00
  0.00000000E+00  0.00000000E+00  0.00000000E+00  0.00000000E+00  0.00000000E+00
  0.00000000E+00  0.00000000E+00  0.00000000E+00  0.00000000E+00  0.00000000E+00
  0.00000000E+00  0.00000000E+00  0.00000000E+00  0.00000000E+00  0.00000000E+00
  0.00000000E+00  0.00000000E+00  0.00000000E+00  0.00000000E+00  0.00000000E+00
  0.00000000E+00  0.00000000E+00  0.00000000E+00  0.00000000E+00  0.00000000E+00
  0.00000000E+00  0.00000000E+00  0.00000000E+00  0.00000000E+00  0.00000000E+00
  0.00000000E+00  0.00000000E+00  0.00000000E+00  0.00000000E+00  0.00000000E+00
  0.00000000E+00  0.00000000E+00  8.07868292E-01  0.00000000E+00  0.00000000E+00
  0.00000000E+00  0.00000000E+00  3.03213268E-01  0.00000000E+00  0.00000000E+00
  0.00000000E+00  0.00000000E+00  4.25186750E-02  0.00000000E+00  0.00000000E+00
  2.39009355E-20  3.47540005E-17 -3.46253913E-16  1.04893535E-15 -2.26595748E-15
  2.62754445E-15 -1.59399027E-15 -6.27499926E-16 -8.27580264E-17  0.00000000E+00
  0.00000000E+00  0.00000000E+00  0.00000000E+00  0.00000000E+00  0.00000000E+00
  0.00000000E+00  0.00000000E+00  0.00000000E+00  0.00000000E+00  0.00000000E+00
  0.00000000E+00  0.00000000E+00  0.00000000E+00  0.00000000E+00  0.00000000E+00
  0.00000000E+00  0.00000000E+00  0.00000000E+00  0.00000000E+00  0.00000000E+00
  0.00000000E+00  0.00000000E+00  0.00000000E+00  6.99634464E-01  0.00000000E+00
  0.00000000E+00  4.03934146E-01  0.00000000E+00  2.62590393E-01  0.00000000E+00
  0.00000000E+00  1.51606634E-01  0.00000000E+00  3.68222527E-02  0.00000000E+00
  0.00000000E+00  2.12593375E-02  0.00000000E+00  0.00000000E+00  0.00000000E+00
  0.00000000E+00  0.00000000E+00  0.00000000E+00  0.00000000E+00  0.00000000E+00
  0.00000000E+00  0.00000000E+00  0.00000000E+00  0.00000000E+00  0.00000000E+00
  0.00000000E+00  0.00000000E+00  0.00000000E+00  0.00000000E+00  0.00000000E+00
  0.00000000E+00  0.00000000E+00  0.00000000E+00  0.00000000E+00  0.00000000E+00
  0.00000000E+00  0.00000000E+00  0.00000000E+00  0.00000000E+00  0.00000000E+00
  0.00000000E+00  0.00000000E+00  0.00000000E+00  0.00000000E+00  0.00000000E+00
  0.00000000E+00  0.00000000E+00  8.09235575E-01  0.00000000E+00  0.00000000E+00
  0.00000000E+00  0.00000000E+00  3.01823270E-01  0.00000000E+00  0.00000000E+00
  0.00000000E+00  0.00000000E+00  4.14079316E-02  0.00000000E+00  0.00000000E+00
  0.00000000E+00  0.00000000E+00  0.00000000E+00  0.00000000E+00  0.00000000E+00
  0.00000000E+00  0.00000000E+00  0.00000000E+00  0.00000000E+00  0.00000000E+00
  0.00000000E+00  0.00000000E+00  0.00000000E+00  0.00000000E+00  0.00000000E+00
  0.00000000E+00  0.00000000E+00  0.00000000E+00  0.00000000E+00  0.00000000E+00
  0.00000000E+00  0.00000000E+00  0.00000000E+00  0.00000000E+00  0.00000000E+00
  0.00000000E+00  0.00000000E+00  0.00000000E+00  0.00000000E+00  0.00000000E+00
  0.00000000E+00  0.00000000E+00  0.00000000E+00  0.00000000E+00  0.00000000E+00
  0.00000000E+00  0.00000000E+00  0.00000000E+00  8.09235575E-01  0.00000000E+00
  0.00000000E+00  0.00000000E+00  0.00000000E+00  3.01823270E-01  0.00000000E+00
  0.00000000E+00  0.00000000E+00  0.00000000E+00  4.14079316E-02  2.69233192E-04
  8.60203270E-04 -2.21312094E-03 -3.00592106E-03  5.64843092E-03  4.02927985E-03
 -7.84920154E-03  1.52578072E-03 -3.76936682E-04  0.00000000E+00  0.00000000E+00
  0.00000000E+00  0.00000000E+00  0.00000000E+00  0.00000000E+00  0.00000000E+00
  0.00000000E+00  0.00000000E+00  0.00000000E+00  0.00000000E+00  0.00000000E+00
  0.00000000E+00  0.00000000E+00  0.00000000E+00  0.00000000E+00  0.00000000E+00
  0.00000000E+00  0.00000000E+00  0.00000000E+00  0.00000000E+00  0.00000000E+00
  0.00000000E+00  0.00000000E+00 -4.04821984E-01  0.00000000E+00  0.00000000E+00
  7.01172244E-01  0.00000000E+00 -1.50686305E-01  0.00000000E+00  0.00000000E+00
  2.60996336E-01  0.00000000E+00 -2.05457986E-02  0.00000000E+00  0.00000000E+00
  3.55863670E-02  0.00000000E+00 -1.70574332E-02 -5.52628597E-02  1.49563229E-01
  1.80840313E-01 -3.51406506E-01 -4.74366330E-01  9.17105343E-01  3.37005977E-01
 -1.37084965E-02  0.00000000E+00  0.00000000E+00  0.00000000E+00  0.00000000E+00
  0.00000000E+00  0.00000000E+00  0.00000000E+00  0.00000000E+00  0.00000000E+00
  0.00000000E+00  0.00000000E+00  0.00000000E+00  0.00000000E+00  0.00000000E+00
  0.00000000E+00  0.00000000E+00  0.00000000E+00  0.00000000E+00  0.00000000E+00
  0.00000000E+00  0.00000000E+00  0.00000000E+00  0.00000000E+00  0.00000000E+00
 -7.03400004E-03  0.00000000E+00  0.00000000E+00  1.21832454E-02  0.00000000E+00
 -3.46341038E-04  0.00000000E+00  0.00000000E+00  5.99880274E-04  0.00000000E+00
  1.50217085E-02  0.00000000E+00  0.00000000E+00 -2.60183624E-02  0.00000000E+00
  0.00000000E+00  0.00000000E+00  0.00000000E+00  0.00000000E+00  0.00000000E+00
  0.00000000E+00  0.00000000E+00  0.00000000E+00  0.00000000E+00  0.00000000E+00
 -1.11390118E-02  0.00000000E+00  0.00000000E+00  1.52544583E-02  0.00000000E+00
  0.00000000E+00  1.26009238E-01  0.00000000E+00  0.00000000E+00 -3.28742536E-01
  0.00000000E+00  0.00000000E+00 -1.31476105E-01  0.00000000E+00  0.00000000E+00
  2.84603570E-01  0.00000000E+00  0.00000000E+00  6.89942772E-01  0.00000000E+00
  0.00000000E+00  2.31173020E-01  0.00000000E+00  0.00000000E+00  0.00000000E+00
  0.00000000E+00  0.00000000E+00  0.00000000E+00  0.00000000E+00  0.00000000E+00
  0.00000000E+00  0.00000000E+00  0.00000000E+00  0.00000000E+00  0.00000000E+00
  0.00000000E+00  0.00000000E+00  0.00000000E+00  0.00000000E+00  0.00000000E+00
  0.00000000E+00  0.00000000E+00  0.00000000E+00  0.00000000E+00  0.00000000E+00
  0.00000000E+00  0.00000000E+00  0.00000000E+00  0.00000000E+00 -1.11390118E-02
  0.00000000E+00  0.00000000E+00  1.52544583E-02  0.00000000E+00  0.00000000E+00
  1.26009238E-01  0.00000000E+00  0.00000000E+00 -3.28742536E-01  0.00000000E+00
  0.00000000E+00 -1.31476105E-01  0.00000000E+00  0.00000000E+00  2.84603570E-01
  0.00000000E+00  0.00000000E+00  6.89942772E-01  0.00000000E+00  0.00000000E+00
  2.31173020E-01  0.00000000E+00  0.00000000E+00  0.00000000E+00  0.00000000E+00
  0.00000000E+00  0.00000000E+00  0.00000000E+00  0.00000000E+00  0.00000000E+00
  0.00000000E+00  0.00000000E+00  0.00000000E+00  0.00000000E+00  0.00000000E+00
  0.00000000E+00  0.00000000E+00  0.00000000E+00  0.00000000E+00  0.00000000E+00
  0.00000000E+00  0.00000000E+00  0.00000000E+00  0.00000000E+00  0.00000000E+00
 -1.03754409E-02  0.00000000E+00  0.00000000E+00  1.50533111E-02  0.00000000E+00
  0.00000000E+00  1.24416009E-01  0.00000000E+00  0.00000000E+00 -3.25523171E-01
  0.00000000E+00  0.00000000E+00 -1.24274619E-01  0.00000000E+00  0.00000000E+00
  2.76475300E-01  0.00000000E+00  0.00000000E+00  6.70483410E-01  0.00000000E+00
  0.00000000E+00  2.58929286E-01  0.00000000E+00  0.00000000E+00  0.00000000E+00
  0.00000000E+00  0.00000000E+00  0.00000000E+00  0.00000000E+00  0.00000000E+00
  0.00000000E+00  0.00000000E+00  0.00000000E+00  0.00000000E+00  0.00000000E+00
  0.00000000E+00  0.00000000E+00  0.00000000E+00  0.00000000E+00  5.65596801E-03
  1.83784556E-02 -5.03538410E-02 -5.99628727E-02  1.18244984E-01  1.89137974E-01
 -5.44979030E-01 -2.23382868E-01  1.19588648E+00  0.00000000E+00  0.00000000E+00
  0.00000000E+00  0.00000000E+00  0.00000000E+00  0.00000000E+00  0.00000000E+00
  0.00000000E+00  0.00000000E+00  0.00000000E+00  0.00000000E+00  0.00000000E+00
  0.00000000E+00  0.00000000E+00  0.00000000E+00  0.00000000E+00  0.00000000E+00
  0.00000000E+00  0.00000000E+00  0.00000000E+00  0.00000000E+00  0.00000000E+00
  0.00000000E+00  0.00000000E+00  2.02564072E-03  0.00000000E+00  0.00000000E+00
 -3.50851265E-03  0.00000000E+00 -1.05081796E-03  0.00000000E+00  0.00000000E+00
  1.82007010E-03  0.00000000E+00 -2.67823752E-03  0.00000000E+00  0.00000000E+00
  4.63884347E-03  0.00000000E+00  0.00000000E+00  0.00000000E+00  0.00000000E+00
  0.00000000E+00  0.00000000E+00  0.00000000E+00  0.00000000E+00  0.00000000E+00
  0.00000000E+00  0.00000000E+00  0.00000000E+00  1.03519382E+00  0.00000000E+00
  0.00000000E+00 -4.81369906E-03  0.00000000E+00  0.00000000E+00 -3.98765614E-02
  0.00000000E+00  0.00000000E+00  1.06347409E-01  0.00000000E+00  0.00000000E+00
  4.20205162E-02  0.00000000E+00  0.00000000E+00 -1.03584537E-01  0.00000000E+00
  0.00000000E+00 -3.08742366E-01  0.00000000E+00  0.00000000E+00 -1.29549739E-02
  0.00000000E+00  0.00000000E+00  0.00000000E+00  0.00000000E+00  0.00000000E+00
  0.00000000E+00  0.00000000E+00  0.00000000E+00  0.00000000E+00  0.00000000E+00
  0.00000000E+00  0.00000000E+00  0.00000000E+00  0.00000000E+00  0.00000000E+00
  0.00000000E+00  0.00000000E+00  0.00000000E+00  0.00000000E+00  0.00000000E+00
  0.00000000E+00  0.00000000E+00  0.00000000E+00  0.00000000E+00  0.00000000E+00
  1.03519382E+00  0.00000000E+00  0.00000000E+00 -4.81369906E-03  0.00000000E+00
  0.00000000E+00 -3.98765614E-02  0.00000000E+00  0.00000000E+00  1.06347409E-01
  0.00000000E+00  0.00000000E+00  4.20205162E-02  0.00000000E+00  0.00000000E+00
 -1.03584537E-01  0.00000000E+00  0.00000000E+00 -3.08742366E-01  0.00000000E+00
  0.00000000E+00 -1.29549739E-02  0.00000000E+00  0.00000000E+00  0.00000000E+00
  0.00000000E+00  0.00000000E+00  0.00000000E+00  0.00000000E+00  0.00000000E+00
  0.00000000E+00  0.00000000E+00  0.00000000E+00  0.00000000E+00  0.00000000E+00
  0.00000000E+00  0.00000000E+00  0.00000000E+00  0.00000000E+00  0.00000000E+00
  0.00000000E+00  0.00000000E+00  0.00000000E+00  0.00000000E+00  0.00000000E+00
  0.00000000E+00  0.00000000E+00  1.07045908E+00  0.00000000E+00  0.00000000E+00
 -4.70140494E-03  0.00000000E+00  0.00000000E+00 -3.89370913E-02  0.00000000E+00
  0.00000000E+00  1.03808249E-01  0.00000000E+00  0.00000000E+00  4.08147165E-02
  0.00000000E+00  0.00000000E+00 -1.01856892E-01  0.00000000E+00  0.00000000E+00
 -2.81871713E-01  0.00000000E+00  0.00000000E+00 -8.29507805E-02  0.00000000E+00
  0.00000000E+00  0.00000000E+00  0.00000000E+00  0.00000000E+00  0.00000000E+00