fubar                                                                   
SP        RPBE1PBE                                                    6-311+G(d,p)        
Number of atoms                            I                1
Info1-9                                    I   N=           9
          11          10           0           0           0         110
           1          18       -1302
Full Title                                 C   N=           1
fubar       
Route                                      C   N=           3
#PBE1PBE/6-311+G(d,p) scf=tight     
Charge                                     I               -1
Multiplicity                               I                1
Number of electrons                        I               36
Number of alpha electrons                  I               18
Number of beta electrons                   I               18
Number of basis functions                  I               48
Number of independent functions            I               48
Number of point charges in /Mol/           I                0
Number of translation vectors              I                0
Atomic numbers                             I   N=           1
          35
Nuclear charges                            R   N=           1
  3.50000000E+01
Current cartesian coordinates              R   N=           3
  0.00000000E+00  0.00000000E+00  0.00000000E+00
Number of symbols in /Mol/                 I                0
Int Atom Types                             I   N=           1
           0
Force Field                                I                0
Atom Types                                 C   N=           1
            
MM charges                                 R   N=           1
  0.00000000E+00
Integer atomic weights                     I   N=           1
          79
Real atomic weights                        R   N=           1
  7.89183361E+01
Atom fragment info                         I   N=           1
           0
Atom residue num                           I   N=           1
           0
Nuclear spins                              I   N=           1
           3
Nuclear ZEff                               R   N=           1
 -2.45000000E+01
Nuclear ZNuc                               R   N=           1
  3.50000000E+01
Nuclear QMom                               R   N=           1
  3.13000000E+01
Nuclear GFac                               R   N=           1
  2.10639900E+00
MicOpt                                     I   N=           1
          -1
Number of residues                         I                0
Number of secondary structures             I                0
SymInf integers                            I   N=          26
           1           8           1           1           1           1
          -1          -1          -1           1          -1          -1
          -1           1          -1          -1          -1          -1
           1           1           1          -1           1           1
           1          -1
RotTr to input orientation                 R   N=          12
  0.00000000E+00  0.00000000E+00 -1.00000000E+00  0.00000000E+00  1.00000000E+00
  0.00000000E+00  1.00000000E+00  0.00000000E+00  0.00000000E+00  0.00000000E+00
  0.00000000E+00  0.00000000E+00
Number of contracted shells                I               19
Number of primitive shells                 I               35
Pure/Cartesian d shells                    I                0
Pure/Cartesian f shells                    I                0
Highest angular momentum                   I                2
Largest degree of contraction              I                6
Shell types                                I   N=          19
           0           0           0           0           0           0
           0           0          -1           1           1           1
           1           1           1           1          -2          -2
          -2
Number of primitives per shell             I   N=          19
           6           3           1           1           1           1
           1           1           1           3           3           3
           1           1           1           1           4           1
           1
Shell to atom map                          I   N=          19
           1           1           1           1           1           1
           1           1           1           1           1           1
           1           1           1           1           1           1
           1
Primitive exponents                        R   N=          35
  4.39700000E+05  6.60300000E+04  1.51400000E+04  4.31700000E+03  1.41400000E+03
  5.23900000E+02  5.23900000E+02  2.07700000E+02  8.65400000E+01  3.05200000E+01
  1.29800000E+01  4.41200000E+00  1.86200000E+00  3.93200000E-01  1.40000000E-01
  3.50000000E-02  2.95700000E+03  7.00300000E+02  2.24600000E+02  8.25900000E+01
  3.31900000E+01  1.42000000E+01  1.42000000E+01  7.43800000E+00  3.52600000E+00
  1.59500000E+00  8.46200000E-01  3.18600000E-01  1.09600000E-01  1.34800000E+02
  3.63900000E+01  1.21600000E+01  4.34100000E+00  1.53500000E+00  4.51000000E-01
Contraction coefficients                   R   N=          35
  8.12983158E-04  6.28486980E-03  3.19193387E-02  1.28797332E-01  3.94591825E-01
  5.41288786E-01  1.83107648E-01  6.17625795E-01  2.53810600E-01  1.00000000E+00
  1.00000000E+00  1.00000000E+00  1.00000000E+00  1.00000000E+00  1.00000000E+00
  1.00000000E+00  2.22598927E-02  1.80199132E-01  8.62395844E-01  3.43987390E-01
  5.07081411E-01  2.58990506E-01  7.96539352E-02  3.73418448E-01  6.04929885E-01
  1.00000000E+00  1.00000000E+00  1.00000000E+00  1.00000000E+00  1.83093925E-02
  1.34995521E-01  4.26085864E-01  6.04279951E-01  1.00000000E+00  1.00000000E+00
P(S=P) Contraction coefficients            R   N=          35
  0.00000000E+00  0.00000000E+00  0.00000000E+00  0.00000000E+00  0.00000000E+00
  0.00000000E+00  0.00000000E+00  0.00000000E+00  0.00000000E+00  0.00000000E+00
  0.00000000E+00  0.00000000E+00  0.00000000E+00  0.00000000E+00  0.00000000E+00
  1.00000000E+00  0.00000000E+00  0.00000000E+00  0.00000000E+00  0.00000000E+00
  0.00000000E+00  0.00000000E+00  0.00000000E+00  0.00000000E+00  0.00000000E+00
  0.00000000E+00  0.00000000E+00  0.00000000E+00  0.00000000E+00  0.00000000E+00
  0.00000000E+00  0.00000000E+00  0.00000000E+00  0.00000000E+00  0.00000000E+00
Coordinates of each shell                  R   N=          57
  0.00000000E+00  0.00000000E+00  0.00000000E+00  0.00000000E+00  0.00000000E+00
  0.00000000E+00  0.00000000E+00  0.00000000E+00  0.00000000E+00  0.00000000E+00
  0.00000000E+00  0.00000000E+00  0.00000000E+00  0.00000000E+00  0.00000000E+00
  0.00000000E+00  0.00000000E+00  0.00000000E+00  0.00000000E+00  0.00000000E+00
  0.00000000E+00  0.00000000E+00  0.00000000E+00  0.00000000E+00  0.00000000E+00
  0.00000000E+00  0.00000000E+00  0.00000000E+00  0.00000000E+00  0.00000000E+00
  0.00000000E+00  0.00000000E+00  0.00000000E+00  0.00000000E+00  0.00000000E+00
  0.00000000E+00  0.00000000E+00  0.00000000E+00  0.00000000E+00  0.00000000E+00
  0.00000000E+00  0.00000000E+00  0.00000000E+00  0.00000000E+00  0.00000000E+00
  0.00000000E+00  0.00000000E+00  0.00000000E+00  0.00000000E+00  0.00000000E+00
  0.00000000E+00  0.00000000E+00  0.00000000E+00  0.00000000E+00  0.00000000E+00
  0.00000000E+00  0.00000000E+00
Num ILSW                                   I              100
ILSW                                       I   N=         100
           0           0           0           0           2           0
           0           0           0           0        1009          -1
           5           0           0           0           0           0
           0           0           0           0           0           0
           1           0           0           0           0           0
           0           0      100000           0          -1           0
           0           0           0           0           0           0
           0           0           0           1           0           0
           0 -2000000000           1           0           0           0
           0           0           4          52           0           0
           0           0          13           0           0           0
           0           0           0           1           0           1
           0           0           0           0           0           0
           0           0           0           0           0           0
           0           0           0           0           0           0
           0           0           0           0           0           0
           0           0           0           0
Num RLSW                                   I               52
RLSW                                       R   N=          52
  7.50000000E-01  7.50000000E-01  1.00000000E+00  1.00000000E+00  2.50000000E-01
  0.00000000E+00  0.00000000E+00  1.00000000E+00  0.00000000E+00  0.00000000E+00
  0.00000000E+00  0.00000000E+00  1.00000000E+00  0.00000000E+00  0.00000000E+00
  0.00000000E+00  0.00000000E+00  1.00000000E+00  0.00000000E+00  0.00000000E+00
  0.00000000E+00  0.00000000E+00  1.00000000E+00  0.00000000E+00  0.00000000E+00
  0.00000000E+00  0.00000000E+00  1.00000000E+00  0.00000000E+00  0.00000000E+00
  0.00000000E+00  0.00000000E+00  1.00000000E+00  0.00000000E+00  0.00000000E+00
  0.00000000E+00  0.00000000E+00  0.00000000E+00  1.00000000E+00  1.00000000E+00
  0.00000000E+00  1.00000000E+00  0.00000000E+00  0.00000000E+00  0.00000000E+00
  0.00000000E+00  0.00000000E+00  0.00000000E+00  0.00000000E+00  0.00000000E+00
  0.00000000E+00  0.00000000E+00
MxBond                                     I                1
NBond                                      I   N=           1
           0
IBond                                      I   N=           1
           0
RBond                                      R   N=           1
  0.00000000E+00
Virial Ratio                               R      2.001024435763982E+00
SCF Energy                                 R     -2.573903372139240E+03
Total Energy                               R     -2.573903372139240E+03
RMS Density                                R      9.753184751227236E-09
Job Status                                 I                1
Nuclear derivative order                   I                0
External E-field                           R   N=          35
  0.00000000E+00  0.00000000E+00  0.00000000E+00  0.00000000E+00  0.00000000E+00
  0.00000000E+00  0.00000000E+00  0.00000000E+00  0.00000000E+00  0.00000000E+00
  0.00000000E+00  0.00000000E+00  0.00000000E+00  0.00000000E+00  0.00000000E+00
  0.00000000E+00  0.00000000E+00  0.00000000E+00  0.00000000E+00  0.00000000E+00
  0.00000000E+00  0.00000000E+00  0.00000000E+00  0.00000000E+00  0.00000000E+00
  0.00000000E+00  0.00000000E+00  0.00000000E+00  0.00000000E+00  0.00000000E+00
  0.00000000E+00  0.00000000E+00  0.00000000E+00  0.00000000E+00  0.00000000E+00
IOpCl                                      I                0
IROHF                                      I                0
Alpha Orbital Energies                     R   N=          48
 -4.82940053E+02 -6.23407091E+01 -5.61165921E+01 -5.61165921E+01 -5.61165921E+01
 -8.47524360E+00 -6.27953182E+00 -6.27953182E+00 -6.27953182E+00 -2.36297365E+00
 -2.36297365E+00 -2.36297365E+00 -2.36297365E+00 -2.36297365E+00 -4.78887014E-01
 -3.82899609E-02 -3.82899609E-02 -3.82899609E-02  1.92045946E-01  2.07207302E-01
  2.07207302E-01  2.07207302E-01  6.43431474E-01  6.43431474E-01  6.43431474E-01
  7.75625066E-01  9.09620290E-01  9.09620290E-01  9.09620290E-01  9.09620290E-01
  9.09620290E-01  2.26206513E+00  2.26206513E+00  2.26206513E+00  4.46753837E+00
  4.46753837E+00  4.46753837E+00  4.46753837E+00  4.46753837E+00  6.73295075E+00
  7.86554327E+00  7.86554327E+00  7.86554327E+00  4.81381657E+01  2.90358530E+02
  2.90358530E+02  2.90358530E+02  1.02128454E+03
Alpha MO coefficients                      R   N=        2304
  3.90064580E-01  6.74223043E-01  8.74999837E-03 -2.18714668E-03  1.05725537E-03
 -5.15958928E-04  1.65283384E-04 -8.73784029E-05  2.18603661E-05  0.00000000E+00
  0.00000000E+00  0.00000000E+00  0.00000000E+00  0.00000000E+00  0.00000000E+00
  0.00000000E+00  0.00000000E+00  0.00000000E+00  0.00000000E+00  0.00000000E+00
  0.00000000E+00  0.00000000E+00  0.00000000E+00  0.00000000E+00  0.00000000E+00
  0.00000000E+00  0.00000000E+00  0.00000000E+00  0.00000000E+00  0.00000000E+00
  0.00000000E+00  0.00000000E+00  0.00000000E+00 -5.28868854E-16  0.00000000E+00
  0.00000000E+00  3.49490152E-16  0.00000000E+00 -7.91294110E-16  0.00000000E+00
  0.00000000E+00  2.47531609E-16  0.00000000E+00 -5.78198598E-16  0.00000000E+00
  0.00000000E+00  3.61164624E-16  0.00000000E+00 -1.28810287E-01 -3.77005484E-01
  6.30158637E-01  4.97031637E-01  4.78345092E-02 -9.53735383E-03  2.61867550E-03
 -1.37597210E-03  3.41688608E-04  0.00000000E+00  0.00000000E+00  0.00000000E+00
  0.00000000E+00  0.00000000E+00  0.00000000E+00  0.00000000E+00  0.00000000E+00
  0.00000000E+00  0.00000000E+00  0.00000000E+00  0.00000000E+00  0.00000000E+00
  0.00000000E+00  0.00000000E+00  0.00000000E+00  0.00000000E+00  0.00000000E+00
  0.00000000E+00  0.00000000E+00  0.00000000E+00  0.00000000E+00  0.00000000E+00
  0.00000000E+00 -1.70157113E-17  0.00000000E+00  0.00000000E+00 -1.34903152E-16
  0.00000000E+00  1.11920224E-15  0.00000000E+00  0.00000000E+00 -3.49496626E-16
  0.00000000E+00  9.92531885E-17  0.00000000E+00  0.00000000E+00 -2.09448691E-16
  0.00000000E+00  0.00000000E+00  0.00000000E+00  0.00000000E+00  0.00000000E+00
  0.00000000E+00  0.00000000E+00  0.00000000E+00  0.00000000E+00  0.00000000E+00
 -3.08321845E-04  0.00000000E+00  0.00000000E+00  1.26610722E-01  0.00000000E+00
  0.00000000E+00  9.23955037E-01  0.00000000E+00  0.00000000E+00  3.18824782E-02
  0.00000000E+00  0.00000000E+00 -1.42246683E-02  0.00000000E+00  0.00000000E+00
  8.63635743E-03  0.00000000E+00  0.00000000E+00 -2.84957888E-03  0.00000000E+00
  0.00000000E+00  1.05025770E-03  0.00000000E+00  0.00000000E+00  0.00000000E+00
  0.00000000E+00  0.00000000E+00  0.00000000E+00  0.00000000E+00  0.00000000E+00
  0.00000000E+00  0.00000000E+00  0.00000000E+00  0.00000000E+00  0.00000000E+00
  0.00000000E+00  0.00000000E+00  0.00000000E+00  0.00000000E+00  0.00000000E+00
  0.00000000E+00  0.00000000E+00  0.00000000E+00  0.00000000E+00  0.00000000E+00
  0.00000000E+00  0.00000000E+00  0.00000000E+00  0.00000000E+00 -3.08321845E-04
  0.00000000E+00  0.00000000E+00  1.26610722E-01  0.00000000E+00  0.00000000E+00
  9.23955037E-01  0.00000000E+00  0.00000000E+00  3.18824782E-02  0.00000000E+00
  0.00000000E+00 -1.42246683E-02  0.00000000E+00  0.00000000E+00  8.63635743E-03
  0.00000000E+00  0.00000000E+00 -2.84957888E-03  0.00000000E+00  0.00000000E+00
  1.05025770E-03  0.00000000E+00  0.00000000E+00  0.00000000E+00  0.00000000E+00
  0.00000000E+00  0.00000000E+00  0.00000000E+00  0.00000000E+00  0.00000000E+00
  0.00000000E+00  0.00000000E+00  0.00000000E+00  0.00000000E+00  0.00000000E+00
  0.00000000E+00  0.00000000E+00  0.00000000E+00  0.00000000E+00  0.00000000E+00
  0.00000000E+00  0.00000000E+00  0.00000000E+00  0.00000000E+00  0.00000000E+00
  0.00000000E+00  0.00000000E+00  0.00000000E+00 -3.08321845E-04  0.00000000E+00
  0.00000000E+00  1.26610722E-01  0.00000000E+00  0.00000000E+00  9.23955037E-01
  0.00000000E+00  0.00000000E+00  3.18824782E-02  0.00000000E+00  0.00000000E+00
 -1.42246683E-02  0.00000000E+00  0.00000000E+00  8.63635743E-03  0.00000000E+00
  0.00000000E+00 -2.84957888E-03  0.00000000E+00  0.00000000E+00  1.05025770E-03
  0.00000000E+00  0.00000000E+00  0.00000000E+00  0.00000000E+00  0.00000000E+00
  0.00000000E+00  0.00000000E+00  0.00000000E+00  0.00000000E+00  0.00000000E+00
  0.00000000E+00  0.00000000E+00  0.00000000E+00  0.00000000E+00  0.00000000E+00
  5.14435962E-02  1.64710788E-01 -4.21081540E-01 -4.57293462E-01  6.63635083E-01
  6.30745303E-01  3.17680864E-02 -1.00660999E-02  2.24629939E-03  0.00000000E+00
  0.00000000E+00  0.00000000E+00  0.00000000E+00  0.00000000E+00  0.00000000E+00
  0.00000000E+00  0.00000000E+00  0.00000000E+00  0.00000000E+00  0.00000000E+00
  0.00000000E+00  0.00000000E+00  0.00000000E+00  0.00000000E+00  0.00000000E+00
  0.00000000E+00  0.00000000E+00  0.00000000E+00  0.00000000E+00  0.00000000E+00
  0.00000000E+00  0.00000000E+00  0.00000000E+00  4.18793728E-16  0.00000000E+00
  0.00000000E+00  9.40497839E-18  0.00000000E+00  2.44177376E-16  0.00000000E+00
  0.00000000E+00 -4.27279255E-16  0.00000000E+00  9.00296360E-16  0.00000000E+00
  0.00000000E+00 -2.20432660E-16  0.00000000E+00  0.00000000E+00  0.00000000E+00
  0.00000000E+00  0.00000000E+00  0.00000000E+00  0.00000000E+00  0.00000000E+00
  0.00000000E+00  0.00000000E+00  0.00000000E+00  0.00000000E+00  5.00010381E-05
  0.00000000E+00  0.00000000E+00 -5.23362576E-02  0.00000000E+00  0.00000000E+00
 -4.23604010E-01  0.00000000E+00  0.00000000E+00  8.79890078E-01  0.00000000E+00
  0.00000000E+00  2.48637572E-01  0.00000000E+00  0.00000000E+00  2.91313150E-02
  0.00000000E+00  0.00000000E+00  2.09146628E-03  0.00000000E+00  0.00000000E+00
 -2.25546146E-04  0.00000000E+00  0.00000000E+00  0.00000000E+00  0.00000000E+00
  0.00000000E+00  0.00000000E+00  0.00000000E+00  0.00000000E+00  0.00000000E+00
  0.00000000E+00  0.00000000E+00  0.00000000E+00  0.00000000E+00  0.00000000E+00
  0.00000000E+00  0.00000000E+00  0.00000000E+00  0.00000000E+00  0.00000000E+00
  0.00000000E+00  0.00000000E+00  0.00000000E+00  0.00000000E+00  0.00000000E+00
  0.00000000E+00  5.00010381E-05  0.00000000E+00  0.00000000E+00 -5.23362576E-02
  0.00000000E+00  0.00000000E+00 -4.23604010E-01  0.00000000E+00  0.00000000E+00
  8.79890078E-01  0.00000000E+00  0.00000000E+00  2.48637572E-01  0.00000000E+00
  0.00000000E+00  2.91313150E-02  0.00000000E+00  0.00000000E+00  2.09146628E-03
  0.00000000E+00  0.00000000E+00 -2.25546146E-04  0.00000000E+00  0.00000000E+00
  0.00000000E+00  0.00000000E+00  0.00000000E+00  0.00000000E+00  0.00000000E+00
  0.00000000E+00  0.00000000E+00  0.00000000E+00  0.00000000E+00  0.00000000E+00
  0.00000000E+00  0.00000000E+00  0.00000000E+00  0.00000000E+00  0.00000000E+00
  0.00000000E+00  0.00000000E+00  0.00000000E+00  0.00000000E+00  0.00000000E+00
  0.00000000E+00  0.00000000E+00  0.00000000E+00  5.00010381E-05  0.00000000E+00
  0.00000000E+00 -5.23362576E-02  0.00000000E+00  0.00000000E+00 -4.23604010E-01
  0.00000000E+00  0.00000000E+00  8.79890078E-01  0.00000000E+00  0.00000000E+00
  2.48637572E-01  0.00000000E+00  0.00000000E+00  2.91313150E-02  0.00000000E+00
  0.00000000E+00  2.09146628E-03  0.00000000E+00  0.00000000E+00 -2.25546145E-04
  0.00000000E+00  0.00000000E+00  0.00000000E+00  0.00000000E+00  0.00000000E+00
  0.00000000E+00  0.00000000E+00  0.00000000E+00  0.00000000E+00  0.00000000E+00
  0.00000000E+00  0.00000000E+00  0.00000000E+00  0.00000000E+00  0.00000000E+00
  0.00000000E+00  0.00000000E+00  0.00000000E+00  0.00000000E+00  0.00000000E+00
  0.00000000E+00  0.00000000E+00  0.00000000E+00  0.00000000E+00  0.00000000E+00
  0.00000000E+00  0.00000000E+00  0.00000000E+00  0.00000000E+00  0.00000000E+00
  0.00000000E+00  0.00000000E+00  0.00000000E+00  0.00000000E+00  0.00000000E+00
  0.00000000E+00  0.00000000E+00  0.00000000E+00  0.00000000E+00  0.00000000E+00
  0.00000000E+00  0.00000000E+00  0.00000000E+00  0.00000000E+00  0.00000000E+00
  0.00000000E+00  0.00000000E+00  0.00000000E+00  0.00000000E+00  0.00000000E+00
  0.00000000E+00  8.09143777E-01  0.00000000E+00  0.00000000E+00  0.00000000E+00
  0.00000000E+00  3.01757278E-01  0.00000000E+00  0.00000000E+00  0.00000000E+00
  0.00000000E+00  4.18721212E-02  0.00000000E+00  0.00000000E+00  0.00000000E+00
  0.00000000E+00  0.00000000E+00  0.00000000E+00  0.00000000E+00  0.00000000E+00
  0.00000000E+00  0.00000000E+00  0.00000000E+00  0.00000000E+00  0.00000000E+00
  0.00000000E+00  0.00000000E+00  0.00000000E+00  0.00000000E+00  0.00000000E+00
  0.00000000E+00  0.00000000E+00  0.00000000E+00  0.00000000E+00  0.00000000E+00
  0.00000000E+00  0.00000000E+00  0.00000000E+00  0.00000000E+00  0.00000000E+00
  0.00000000E+00  0.00000000E+00  0.00000000E+00  0.00000000E+00  0.00000000E+00
  0.00000000E+00  0.00000000E+00  0.00000000E+00  0.00000000E+00  0.00000000E+00
  0.00000000E+00  0.00000000E+00  8.09143777E-01  0.00000000E+00  0.00000000E+00
  0.00000000E+00  0.00000000E+00  3.01757278E-01  0.00000000E+00  0.00000000E+00
  0.00000000E+00  0.00000000E+00  4.18721212E-02  0.00000000E+00  0.00000000E+00
  0.00000000E+00  0.00000000E+00  0.00000000E+00  0.00000000E+00  0.00000000E+00
  0.00000000E+00  0.00000000E+00  0.00000000E+00  0.00000000E+00  0.00000000E+00
  0.00000000E+00  0.00000000E+00  0.00000000E+00  0.00000000E+00  0.00000000E+00
  0.00000000E+00  0.00000000E+00  0.00000000E+00  0.00000000E+00  0.00000000E+00
  0.00000000E+00  0.00000000E+00  0.00000000E+00  0.00000000E+00  0.00000000E+00
  0.00000000E+00  0.00000000E+00  0.00000000E+00  0.00000000E+00  0.00000000E+00
  0.00000000E+00  0.00000000E+00  0.00000000E+00  8.09143777E-01  0.00000000E+00
  0.00000000E+00  0.00000000E+00  0.00000000E+00  3.01757278E-01  0.00000000E+00
  0.00000000E+00  0.00000000E+00  0.00000000E+00  4.18721212E-02  0.00000000E+00
  0.00000000E+00 -2.70390718E-17 -7.28096668E-17  7.12436038E-17  6.11029552E-16
 -1.08194337E-15 -3.40906945E-16  4.64142701E-15 -6.44406726E-15  3.13674734E-15
  0.00000000E+00  0.00000000E+00  0.00000000E+00  0.00000000E+00  0.00000000E+00
  0.00000000E+00  0.00000000E+00  0.00000000E+00  0.00000000E+00  0.00000000E+00
  0.00000000E+00  0.00000000E+00  0.00000000E+00  0.00000000E+00  0.00000000E+00
  0.00000000E+00  0.00000000E+00  0.00000000E+00  0.00000000E+00  0.00000000E+00
  0.00000000E+00  0.00000000E+00  0.00000000E+00  0.00000000E+00  1.60570206E-01
  0.00000000E+00  0.00000000E+00  7.93051613E-01  0.00000000E+00  5.98820997E-02
  0.00000000E+00  0.00000000E+00  2.95755962E-01  0.00000000E+00  8.30929597E-03
  0.00000000E+00  0.00000000E+00  4.10393730E-02  0.00000000E+00  2.29979221E-18
  3.03189015E-17 -1.97430272E-16  3.09036811E-16 -9.47130872E-16  2.75559920E-15
 -6.30847558E-15  6.01044341E-15 -3.15675759E-15  0.00000000E+00  0.00000000E+00
  0.00000000E+00  0.00000000E+00  0.00000000E+00  0.00000000E+00  0.00000000E+00
  0.00000000E+00  0.00000000E+00  0.00000000E+00  0.00000000E+00  0.00000000E+00
  0.00000000E+00  0.00000000E+00  0.00000000E+00  0.00000000E+00  0.00000000E+00
  0.00000000E+00  0.00000000E+00  0.00000000E+00  0.00000000E+00  0.00000000E+00
  0.00000000E+00  0.00000000E+00  7.93051613E-01  0.00000000E+00  0.00000000E+00
 -1.60570206E-01  0.00000000E+00  2.95755962E-01  0.00000000E+00  0.00000000E+00
 -5.98820997E-02  0.00000000E+00  4.10393730E-02  0.00000000E+00  0.00000000E+00
 -8.30929597E-03  0.00000000E+00 -1.62552883E-02 -5.26092278E-02  1.41828640E-01
  1.74553752E-01 -3.42553935E-01 -4.32021437E-01  7.83706601E-01  4.33717827E-01
  1.76022272E-02  0.00000000E+00  0.00000000E+00  0.00000000E+00  0.00000000E+00
  0.00000000E+00  0.00000000E+00  0.00000000E+00  0.00000000E+00  0.00000000E+00
  0.00000000E+00  0.00000000E+00  0.00000000E+00  0.00000000E+00  0.00000000E+00
  0.00000000E+00  0.00000000E+00  0.00000000E+00  0.00000000E+00  0.00000000E+00
  0.00000000E+00  0.00000000E+00  0.00000000E+00  0.00000000E+00  0.00000000E+00
 -8.34569361E-16  0.00000000E+00  0.00000000E+00  6.73112998E-17  0.00000000E+00
  1.52445212E-15  0.00000000E+00  0.00000000E+00  4.39089620E-16  0.00000000E+00
 -7.37205242E-16  0.00000000E+00  0.00000000E+00  4.20253374E-16  0.00000000E+00
  0.00000000E+00  0.00000000E+00  0.00000000E+00  0.00000000E+00  0.00000000E+00
  0.00000000E+00  0.00000000E+00  0.00000000E+00  0.00000000E+00  0.00000000E+00
  0.00000000E+00  1.06813234E-01  0.00000000E+00  0.00000000E+00  1.30945478E-02
  0.00000000E+00  0.00000000E+00  1.08223128E-01  0.00000000E+00  0.00000000E+00
 -2.82187784E-01  0.00000000E+00  0.00000000E+00 -1.05294317E-01  0.00000000E+00
  0.00000000E+00  2.29351901E-01  0.00000000E+00  0.00000000E+00  5.31419259E-01
  0.00000000E+00  0.00000000E+00  3.83225587E-01  0.00000000E+00  0.00000000E+00
  0.00000000E+00  0.00000000E+00  0.00000000E+00  0.00000000E+00  0.00000000E+00
  0.00000000E+00  0.00000000E+00  0.00000000E+00  0.00000000E+00  0.00000000E+00
  0.00000000E+00  0.00000000E+00  0.00000000E+00  0.00000000E+00  0.00000000E+00
  0.00000000E+00  0.00000000E+00  0.00000000E+00  0.00000000E+00  0.00000000E+00
  0.00000000E+00  0.00000000E+00  0.00000000E+00  1.06813234E-01  0.00000000E+00
  0.00000000E+00  1.30945478E-02  0.00000000E+00  0.00000000E+00  1.08223128E-01
  0.00000000E+00  0.00000000E+00 -2.82187784E-01  0.00000000E+00  0.00000000E+00
 -1.05294317E-01  0.00000000E+00  0.00000000E+00  2.29351901E-01  0.00000000E+00
  0.00000000E+00  5.31419259E-01  0.00000000E+00  0.00000000E+00  3.83225587E-01
  0.00000000E+00  0.00000000E+00  0.00000000E+00  0.00000000E+00  0.00000000E+00
  0.00000000E+00  0.00000000E+00  0.00000000E+00  0.00000000E+00  0.00000000E+00
  0.00000000E+00  0.00000000E+00  0.00000000E+00  0.00000000E+00  0.00000000E+00
  0.00000000E+00  0.00000000E+00  0.00000000E+00  0.00000000E+00  0.00000000E+00
  0.00000000E+00  0.00000000E+00  0.00000000E+00  0.00000000E+00  0.00000000E+00
  1.06813234E-01  0.00000000E+00  0.00000000E+00  1.30945478E-02  0.00000000E+00
  0.00000000E+00  1.08223128E-01  0.00000000E+00  0.00000000E+00 -2.82187784E-01
  0.00000000E+00  0.00000000E+00 -1.05294317E-01  0.00000000E+00  0.00000000E+00
  2.29351901E-01  0.00000000E+00  0.00000000E+00  5.31419259E-01  0.00000000E+00
  0.00000000E+00  3.83225587E-01  0.00000000E+00  0.00000000E+00  0.00000000E+00
  0.00000000E+00  0.00000000E+00  0.00000000E+00  0.00000000E+00  0.00000000E+00
  0.00000000E+00  0.00000000E+00  0.00000000E+00  0.00000000E+00  0.00000000E+00
  0.00000000E+00  0.00000000E+00  0.00000000E+00  0.00000000E+00  3.99381129E-03
  1.28036878E-02 -3.33666001E-02 -4.91695956E-02  1.06392803E-01  7.45499388E-02
 -6.43344804E-02 -8.39637262E-01  1.40915646E+00  0.00000000E+00  0.00000000E+00
  0.00000000E+00  0.00000000E+00  0.00000000E+00  0.00000000E+00  0.00000000E+00
  0.00000000E+00  0.00000000E+00  0.00000000E+00  0.00000000E+00  0.00000000E+00
  0.00000000E+00  0.00000000E+00  0.00000000E+00  0.00000000E+00  0.00000000E+00
  0.00000000E+00  0.00000000E+00  0.00000000E+00  0.00000000E+00  0.00000000E+00
  0.00000000E+00  0.00000000E+00  3.14520341E-15  0.00000000E+00  0.00000000E+00
  2.88217809E-16  0.00000000E+00 -7.73616746E-16  0.00000000E+00  0.00000000E+00
 -2.59944847E-15  0.00000000E+00 -6.93932546E-15  0.00000000E+00  0.00000000E+00
  2.20366889E-15  0.00000000E+00  0.00000000E+00  0.00000000E+00  0.00000000E+00
  0.00000000E+00  0.00000000E+00  0.00000000E+00  0.00000000E+00  0.00000000E+00
  0.00000000E+00  0.00000000E+00  1.30500304E+00  0.00000000E+00  0.00000000E+00
 -4.27213014E-03  0.00000000E+00  0.00000000E+00 -3.48547671E-02  0.00000000E+00
  0.00000000E+00  8.82898077E-02  0.00000000E+00  0.00000000E+00  7.34282345E-02
  0.00000000E+00  0.00000000E+00 -1.66680470E-01  0.00000000E+00  0.00000000E+00
 -1.25277060E-02  0.00000000E+00  0.00000000E+00 -6.78633616E-01  0.00000000E+00
  0.00000000E+00  0.00000000E+00  0.00000000E+00  0.00000000E+00  0.00000000E+00
  0.00000000E+00  0.00000000E+00  0.00000000E+00  0.00000000E+00  0.00000000E+00
  0.00000000E+00  0.00000000E+00  0.00000000E+00  0.00000000E+00  0.00000000E+00
  0.00000000E+00  0.00000000E+00  0.00000000E+00  0.00000000E+00  0.00000000E+00
  0.00000000E+00  0.00000000E+00  0.00000000E+00  0.00000000E+00  1.30500304E+00
  0.00000000E+00  0.00000000E+00 -4.27213014E-03  0.00000000E+00  0.00000000E+00
 -3.48547671E-02  0.00000000E+00  0.00000000E+00  8.82898077E-02  0.00000000E+00
  0.00000000E+00  7.34282345E-02  0.00000000E+00  0.00000000E+00 -1.66680470E-01
  0.00000000E+00  0.00000000E+00 -1.25277060E-02  0.00000000E+00  0.00000000E+00
 -6.78633616E-01  0.00000000E+00  0.00000000E+00  0.00000000E+00  0.00000000E+00
  0.00000000E+00  0.00000000E+00  0.00000000E+00  0.00000000E+00  0.00000000E+00
  0.00000000E+00  0.00000000E+00  0.00000000E+00  0.00000000E+00  0.00000000E+00
  0.00000000E+00  0.00000000E+00  0.00000000E+00  0.00000000E+00  0.00000000E+00
  0.00000000E+00  0.00000000E+00  0.00000000E+00  0.00000000E+00  0.00000000E+00
  0.00000000E+00  0.00000000E+00  0.00000000E+00  0.00000000E+00  1.30500304E+00
  0.00000000E+00  0.00000000E+00 -4.27213014E-03  0.00000000E+00  0.00000000E+00
 -3.48547671E-02  0.00000000E+00  0.00000000E+00  8.82898077E-02  0.00000000E+00
  0.00000000E+00  7.34282345E-02  0.00000000E+00  0.00000000E+00 -1.66680470E-01
  0.00000000E+00  0.00000000E+00 -1.25277060E-02  0.00000000E+00  0.00000000E+00
 -6.78633616E-01  0.00000000E+00  0.00000000E+00  0.00000000E+00  0.00000000E+00
  0.00000000E+00  0.00000000E+00  0.00000000E+00  0.00000000E+00  0.00000000E+00
  0.00000000E+00  0.00000000E+00  0.00000000E+00  0.00000000E+00  0.00000000E+00
  0.00000000E+00  0.00000000E+00  0.00000000E+00  0.00000000E+00  0.00000000E+00
  0.00000000E+00  0.00000000E+00  0.00000000E+00  0.00000000E+00  0.00000000E+00
  0.00000000E+00  0.00000000E+00 -7.59642322E-01  0.00000000E+00  0.00000000E+00
 -1.12659479E-02  0.00000000E+00  0.00000000E+00 -9.53373224E-02  0.00000000E+00
  0.00000000E+00  2.67780532E-01  0.00000000E+00  0.00000000E+00 -7.16189822E-02
  0.00000000E+00  0.00000000E+00  1.53494717E-01  0.00000000E+00  0.00000000E+00
 -1.52625964E+00  0.00000000E+00  0.00000000E+00  1.98736344E+00  0.00000000E+00
  0.00000000E+00  0.00000000E+00  0.00000000E+00  0.00000000E+00  0.00000000E+00
  0.00000000E+00  0.00000000E+00  0.00000000E+00  0.00000000E+00  0.00000000E+00
  0.00000000E+00  0.00000000E+00  0.00000000E+00  0.00000000E+00  0.00000000E+00