fubar                                                                   
SP        UPBE1PBE                                                    6-311+G(d,p)        
Number of atoms                            I                1
Info1-9                                    I   N=           9
          11          10           0           0           0         110
           1          18       -1302
Full Title                                 C   N=           1
fubar       
Route                                      C   N=           3
#PBE1PBE/6-311+G(d,p) scf=tight     
Charge                                     I                1
Multiplicity                               I                4
Number of electrons                        I                7
Number of alpha electrons                  I                5
Number of beta electrons                   I                2
Number of basis functions                  I               22
Number of independent functions            I               22
Number of point charges in /Mol/           I                0
Number of translation vectors              I                0
Atomic numbers                             I   N=           1
           8
Nuclear charges                            R   N=           1
  8.00000000E+00
Current cartesian coordinates              R   N=           3
  0.00000000E+00  0.00000000E+00  0.00000000E+00
Number of symbols in /Mol/                 I                0
Int Atom Types                             I   N=           1
           0
Force Field                                I                0
Atom Types                                 C   N=           1
            
MM charges                                 R   N=           1
  0.00000000E+00
Integer atomic weights                     I   N=           1
          16
Real atomic weights                        R   N=           1
  1.59949146E+01
Atom fragment info                         I   N=           1
           0
Atom residue num                           I   N=           1
           0
Nuclear spins                              I   N=           1
           0
Nuclear ZEff                               R   N=           1
 -5.60000000E+00
Nuclear ZNuc                               R   N=           1
  8.00000000E+00
Nuclear QMom                               R   N=           1
  0.00000000E+00
Nuclear GFac                               R   N=           1
  0.00000000E+00
MicOpt                                     I   N=           1
          -1
Number of residues                         I                0
Number of secondary structures             I                0
SymInf integers                            I   N=          26
           1           8           1           1           1           1
          -1          -1          -1           1          -1          -1
          -1           1          -1          -1          -1          -1
           1           1           1          -1           1           1
           1          -1
RotTr to input orientation                 R   N=          12
  0.00000000E+00  0.00000000E+00 -1.00000000E+00  0.00000000E+00  1.00000000E+00
  0.00000000E+00  1.00000000E+00  0.00000000E+00  0.00000000E+00  0.00000000E+00
  0.00000000E+00  0.00000000E+00
Number of contracted shells                I                6
Number of primitive shells                 I               13
Pure/Cartesian d shells                    I                0
Pure/Cartesian f shells                    I                0
Highest angular momentum                   I                2
Largest degree of contraction              I                6
Shell types                                I   N=           6
           0          -1          -1          -1          -1          -2
Number of primitives per shell             I   N=           6
           6           3           1           1           1           1
Shell to atom map                          I   N=           6
           1           1           1           1           1           1
Primitive exponents                        R   N=          13
  8.58850000E+03  1.29723000E+03  2.99296000E+02  8.73771000E+01  2.56789000E+01
  3.74004000E+00  4.21175000E+01  9.62837000E+00  2.85332000E+00  9.05661000E-01
  2.55611000E-01  8.45000000E-02  1.29200000E+00
Contraction coefficients                   R   N=          13
  1.89515008E-03  1.43859006E-02  7.07320031E-02  2.40001011E-01  5.94797026E-01
  2.80802012E-01  1.13889012E-01  9.20811101E-01 -3.27447036E-03  1.00000000E+00
  1.00000000E+00  1.00000000E+00  1.00000000E+00
P(S=P) Contraction coefficients            R   N=          13
  0.00000000E+00  0.00000000E+00  0.00000000E+00  0.00000000E+00  0.00000000E+00
  0.00000000E+00  3.65113974E-02  2.37152983E-01  8.19701941E-01  1.00000000E+00
  1.00000000E+00  1.00000000E+00  0.00000000E+00
Coordinates of each shell                  R   N=          18
  0.00000000E+00  0.00000000E+00  0.00000000E+00  0.00000000E+00  0.00000000E+00
  0.00000000E+00  0.00000000E+00  0.00000000E+00  0.00000000E+00  0.00000000E+00
  0.00000000E+00  0.00000000E+00  0.00000000E+00  0.00000000E+00  0.00000000E+00
  0.00000000E+00  0.00000000E+00  0.00000000E+00
Num ILSW                                   I              100
ILSW                                       I   N=         100
           1           0           0           0           2           0
           0           0           0           0        1009          -1
           5           0           0           0           0           0
           0           0           0           0           0           0
           1           0           0           0           0           0
           0           0      100000           0          -1           0
           0           0           0           0           0           0
           0           0           0           1           0           0
           0 -2000000000           1           0           0           0
           0           0           4          52           0           0
           0           0          13           0           0           0
           0           0           0           1           0           1
           0           0           0           0           0           0
           0           0           0           0           0           0
           0           0           0           0           0           0
           0           0           0           0           0           0
           0           0           0           0
Num RLSW                                   I               52
RLSW                                       R   N=          52
  7.50000000E-01  7.50000000E-01  1.00000000E+00  1.00000000E+00  2.50000000E-01
  0.00000000E+00  0.00000000E+00  1.00000000E+00  0.00000000E+00  0.00000000E+00
  0.00000000E+00  0.00000000E+00  1.00000000E+00  0.00000000E+00  0.00000000E+00
  0.00000000E+00  0.00000000E+00  1.00000000E+00  0.00000000E+00  0.00000000E+00
  0.00000000E+00  0.00000000E+00  1.00000000E+00  0.00000000E+00  0.00000000E+00
  0.00000000E+00  0.00000000E+00  1.00000000E+00  0.00000000E+00  0.00000000E+00
  0.00000000E+00  0.00000000E+00  1.00000000E+00  0.00000000E+00  0.00000000E+00
  0.00000000E+00  0.00000000E+00  0.00000000E+00  1.00000000E+00  1.00000000E+00
  0.00000000E+00  1.00000000E+00  0.00000000E+00  0.00000000E+00  0.00000000E+00
  0.00000000E+00  0.00000000E+00  0.00000000E+00  0.00000000E+00  0.00000000E+00
  0.00000000E+00  0.00000000E+00
MxBond                                     I                1
NBond                                      I   N=           1
           0
IBond                                      I   N=           1
           0
RBond                                      R   N=           1
  0.00000000E+00
Virial Ratio                               R      2.001009470012900E+00
SCF Energy                                 R     -7.450349707160653E+01
Total Energy                               R     -7.450349707160653E+01
S**2                                       R      3.752282097927302E+00
S**2 after annihilation                    R      3.750000003171896E+00
RMS Density                                R      3.903540421720997E-10
Job Status                                 I                1
Nuclear derivative order                   I                0
External E-field                           R   N=          35
  0.00000000E+00  0.00000000E+00  0.00000000E+00  0.00000000E+00  0.00000000E+00
  0.00000000E+00  0.00000000E+00  0.00000000E+00  0.00000000E+00  0.00000000E+00
  0.00000000E+00  0.00000000E+00  0.00000000E+00  0.00000000E+00  0.00000000E+00
  0.00000000E+00  0.00000000E+00  0.00000000E+00  0.00000000E+00  0.00000000E+00
  0.00000000E+00  0.00000000E+00  0.00000000E+00  0.00000000E+00  0.00000000E+00
  0.00000000E+00  0.00000000E+00  0.00000000E+00  0.00000000E+00  0.00000000E+00
  0.00000000E+00  0.00000000E+00  0.00000000E+00  0.00000000E+00  0.00000000E+00
IOpCl                                      I                1
IROHF                                      I                0
Alpha Orbital Energies                     R   N=          22
 -2.00421315E+01 -1.66838836E+00 -1.06495407E+00 -1.06495407E+00 -1.06495407E+00
 -1.95207388E-01 -1.06507041E-01 -1.06507041E-01 -1.06507041E-01  5.39135646E-01
  5.39135646E-01  5.39135646E-01  7.18123221E-01  2.07983491E+00  2.07983491E+00
  2.07983491E+00  2.07983491E+00  2.07983491E+00  4.21850702E+00  4.21850702E+00
  4.21850702E+00  4.90326570E+01
Beta Orbital Energies                      R   N=          22
 -1.99502080E+01 -1.38189129E+00 -6.70188933E-01 -6.70188933E-01 -6.70188933E-01
 -1.54869158E-01 -6.74428792E-02 -6.74428792E-02 -6.74428792E-02  6.39050192E-01
  6.39050192E-01  6.39050192E-01  8.29318230E-01  2.30100986E+00  2.30100986E+00
  2.30100986E+00  2.30100986E+00  2.30100986E+00  4.39836971E+00  4.39836971E+00
  4.39836971E+00  4.91140859E+01
Alpha MO coefficients                      R   N=         484
  5.50397853E-01  4.70497093E-01  0.00000000E+00  0.00000000E+00  0.00000000E+00
  1.32045772E-02  0.00000000E+00  0.00000000E+00  0.00000000E+00 -6.00901610E-03
  0.00000000E+00  0.00000000E+00  0.00000000E+00  2.23807934E-03  0.00000000E+00
  0.00000000E+00  0.00000000E+00 -7.61506706E-17  0.00000000E+00  0.00000000E+00
  4.51461482E-16  0.00000000E+00 -1.39060661E-01 -2.28116482E-01  0.00000000E+00
  0.00000000E+00  0.00000000E+00  7.37035655E-01  0.00000000E+00  0.00000000E+00
  0.00000000E+00  4.11677200E-01  0.00000000E+00  0.00000000E+00  0.00000000E+00
 -3.51404215E-02  0.00000000E+00  0.00000000E+00  0.00000000E+00  2.95270670E-16
  0.00000000E+00  0.00000000E+00 -4.38175440E-16  0.00000000E+00  0.00000000E+00
  0.00000000E+00  0.00000000E+00  3.60857611E-01  0.00000000E+00  0.00000000E+00
  0.00000000E+00  5.41826727E-01  0.00000000E+00  0.00000000E+00  0.00000000E+00
  3.07663093E-01  0.00000000E+00  0.00000000E+00  0.00000000E+00 -1.40731834E-02
  0.00000000E+00  0.00000000E+00  0.00000000E+00  0.00000000E+00  0.00000000E+00
  0.00000000E+00  0.00000000E+00  0.00000000E+00  0.00000000E+00  0.00000000E+00
  3.60857611E-01  0.00000000E+00  0.00000000E+00  0.00000000E+00  5.41826727E-01
  0.00000000E+00  0.00000000E+00  0.00000000E+00  3.07663093E-01  0.00000000E+00
  0.00000000E+00  0.00000000E+00 -1.40731834E-02  0.00000000E+00  0.00000000E+00
  0.00000000E+00  0.00000000E+00  0.00000000E+00  0.00000000E+00  0.00000000E+00
  3.60857611E-01  0.00000000E+00  0.00000000E+00  0.00000000E+00  5.41826727E-01
  0.00000000E+00  0.00000000E+00  0.00000000E+00  3.07663093E-01  0.00000000E+00
  0.00000000E+00  0.00000000E+00 -1.40731834E-02  0.00000000E+00  0.00000000E+00
  0.00000000E+00  0.00000000E+00  0.00000000E+00  0.00000000E+00  0.00000000E+00
  4.36663669E-02  7.47387131E-02  0.00000000E+00  0.00000000E+00  0.00000000E+00
 -3.00793941E-01  0.00000000E+00  0.00000000E+00  0.00000000E+00 -6.33692008E-01
  0.00000000E+00  0.00000000E+00  0.00000000E+00  1.43276283E+00  0.00000000E+00
  0.00000000E+00  0.00000000E+00 -6.33980833E-17  0.00000000E+00  0.00000000E+00
  6.89356605E-17  0.00000000E+00  0.00000000E+00  0.00000000E+00  0.00000000E+00
 -1.22904898E-01  0.00000000E+00  0.00000000E+00  0.00000000E+00 -1.73805064E-01
  0.00000000E+00  0.00000000E+00  0.00000000E+00 -1.78339323E-01  0.00000000E+00
  0.00000000E+00  0.00000000E+00  1.10873513E+00  0.00000000E+00  0.00000000E+00
  0.00000000E+00  0.00000000E+00  0.00000000E+00  0.00000000E+00  0.00000000E+00
  0.00000000E+00  0.00000000E+00  0.00000000E+00 -1.22904898E-01  0.00000000E+00
  0.00000000E+00  0.00000000E+00 -1.73805064E-01  0.00000000E+00  0.00000000E+00
  0.00000000E+00 -1.78339323E-01  0.00000000E+00  0.00000000E+00  0.00000000E+00
  1.10873513E+00  0.00000000E+00  0.00000000E+00  0.00000000E+00  0.00000000E+00
  0.00000000E+00  0.00000000E+00  0.00000000E+00 -1.22904898E-01  0.00000000E+00
  0.00000000E+00  0.00000000E+00 -1.73805064E-01  0.00000000E+00  0.00000000E+00
  0.00000000E+00 -1.78339323E-01  0.00000000E+00  0.00000000E+00  0.00000000E+00
  1.10873513E+00  0.00000000E+00  0.00000000E+00  0.00000000E+00  0.00000000E+00
  0.00000000E+00  0.00000000E+00  0.00000000E+00  0.00000000E+00  0.00000000E+00
  0.00000000E+00  0.00000000E+00 -2.51768220E-01  0.00000000E+00  0.00000000E+00
  0.00000000E+00 -7.14800581E-01  0.00000000E+00  0.00000000E+00  0.00000000E+00
  1.70058643E+00  0.00000000E+00  0.00000000E+00  0.00000000E+00 -9.63759538E-01
  0.00000000E+00  0.00000000E+00  0.00000000E+00  0.00000000E+00  0.00000000E+00
  0.00000000E+00  0.00000000E+00 -2.51768220E-01  0.00000000E+00  0.00000000E+00
  0.00000000E+00 -7.14800581E-01  0.00000000E+00  0.00000000E+00  0.00000000E+00
  1.70058643E+00  0.00000000E+00  0.00000000E+00  0.00000000E+00 -9.63759538E-01
  0.00000000E+00  0.00000000E+00  0.00000000E+00  0.00000000E+00  0.00000000E+00
  0.00000000E+00  0.00000000E+00  0.00000000E+00  0.00000000E+00  0.00000000E+00
 -2.51768220E-01  0.00000000E+00  0.00000000E+00  0.00000000E+00 -7.14800581E-01
  0.00000000E+00  0.00000000E+00  0.00000000E+00  1.70058643E+00  0.00000000E+00
  0.00000000E+00  0.00000000E+00 -9.63759538E-01  0.00000000E+00  0.00000000E+00
  0.00000000E+00  0.00000000E+00  0.00000000E+00  0.00000000E+00  1.13719394E-01
  2.26463516E-01  0.00000000E+00  0.00000000E+00  0.00000000E+00 -1.73532642E+00
  0.00000000E+00  0.00000000E+00  0.00000000E+00  2.61089974E+00  0.00000000E+00
  0.00000000E+00  0.00000000E+00 -1.29346167E+00  0.00000000E+00  0.00000000E+00
  0.00000000E+00 -1.13393007E-15  0.00000000E+00  0.00000000E+00  1.18953863E-15
  0.00000000E+00  0.00000000E+00  0.00000000E+00  0.00000000E+00  0.00000000E+00
  0.00000000E+00  0.00000000E+00  0.00000000E+00  0.00000000E+00  0.00000000E+00
  0.00000000E+00  0.00000000E+00  0.00000000E+00  0.00000000E+00  0.00000000E+00
  0.00000000E+00  0.00000000E+00  0.00000000E+00  0.00000000E+00  0.00000000E+00
  0.00000000E+00  0.00000000E+00  1.00000000E+00  0.00000000E+00  0.00000000E+00
  0.00000000E+00  0.00000000E+00  0.00000000E+00  0.00000000E+00  0.00000000E+00
  0.00000000E+00  0.00000000E+00  0.00000000E+00  0.00000000E+00  0.00000000E+00
  0.00000000E+00  0.00000000E+00  0.00000000E+00  0.00000000E+00  0.00000000E+00
  0.00000000E+00  1.00000000E+00  0.00000000E+00  0.00000000E+00  0.00000000E+00
  0.00000000E+00  0.00000000E+00  0.00000000E+00  0.00000000E+00  0.00000000E+00
  0.00000000E+00  0.00000000E+00  0.00000000E+00  0.00000000E+00  0.00000000E+00
  0.00000000E+00  0.00000000E+00  0.00000000E+00  0.00000000E+00  0.00000000E+00
  0.00000000E+00  0.00000000E+00  0.00000000E+00  0.00000000E+00  1.00000000E+00
  0.00000000E+00  0.00000000E+00  2.94977644E-17 -4.52400674E-17  0.00000000E+00
  0.00000000E+00  0.00000000E+00  1.26914652E-15  0.00000000E+00  0.00000000E+00
  0.00000000E+00 -2.10923391E-15  0.00000000E+00  0.00000000E+00  0.00000000E+00
  1.34984058E-15  0.00000000E+00  0.00000000E+00  0.00000000E+00  1.77372067E-01
  0.00000000E+00  0.00000000E+00  9.84143866E-01  0.00000000E+00  1.91478280E-16
  2.04617359E-16  0.00000000E+00  0.00000000E+00  0.00000000E+00 -2.02861124E-15
  0.00000000E+00  0.00000000E+00  0.00000000E+00  2.88169844E-15  0.00000000E+00
  0.00000000E+00  0.00000000E+00 -1.49536297E-15  0.00000000E+00  0.00000000E+00
  0.00000000E+00  9.84143866E-01  0.00000000E+00  0.00000000E+00 -1.77372067E-01
  0.00000000E+00  0.00000000E+00  0.00000000E+00  0.00000000E+00  0.00000000E+00
 -1.26252998E+00  0.00000000E+00  0.00000000E+00  0.00000000E+00  1.54344970E+00
  0.00000000E+00  0.00000000E+00  0.00000000E+00 -8.97299315E-01  0.00000000E+00
  0.00000000E+00  0.00000000E+00  3.34810026E-01  0.00000000E+00  0.00000000E+00
  0.00000000E+00  0.00000000E+00  0.00000000E+00  0.00000000E+00  0.00000000E+00
  0.00000000E+00 -1.26252998E+00  0.00000000E+00  0.00000000E+00  0.00000000E+00
  1.54344970E+00  0.00000000E+00  0.00000000E+00  0.00000000E+00 -8.97299315E-01
  0.00000000E+00  0.00000000E+00  0.00000000E+00  3.34810026E-01  0.00000000E+00
  0.00000000E+00  0.00000000E+00  0.00000000E+00  0.00000000E+00  0.00000000E+00
  0.00000000E+00  0.00000000E+00 -1.26252998E+00  0.00000000E+00  0.00000000E+00
  0.00000000E+00  1.54344970E+00  0.00000000E+00  0.00000000E+00  0.00000000E+00
 -8.97299315E-01  0.00000000E+00  0.00000000E+00  0.00000000E+00  3.34810026E-01
  0.00000000E+00  0.00000000E+00  0.00000000E+00  0.00000000E+00  0.00000000E+00
  0.00000000E+00  0.00000000E+00 -2.24607381E+00  2.33019162E+00  0.00000000E+00
  0.00000000E+00  0.00000000E+00 -2.49787177E-01  0.00000000E+00  0.00000000E+00
  0.00000000E+00  2.30499828E-01  0.00000000E+00  0.00000000E+00  0.00000000E+00
 -9.21158260E-02  0.00000000E+00  0.00000000E+00  0.00000000E+00  2.62202870E-17
  0.00000000E+00  0.00000000E+00 -1.06866933E-17  0.00000000E+00
Beta MO coefficients                       R   N=         484
  5.52844083E-01  4.69785728E-01  0.00000000E+00  0.00000000E+00  0.00000000E+00
  7.95922287E-03  0.00000000E+00  0.00000000E+00  0.00000000E+00 -3.56112381E-03
  0.00000000E+00  0.00000000E+00  0.00000000E+00  1.29289983E-03  0.00000000E+00
  0.00000000E+00  0.00000000E+00  1.93861043E-16  0.00000000E+00  0.00000000E+00
 -4.72030807E-16  0.00000000E+00 -1.33196678E-01 -2.15332872E-01  0.00000000E+00
  0.00000000E+00  0.00000000E+00  6.69997317E-01  0.00000000E+00  0.00000000E+00
  0.00000000E+00  4.72253485E-01  0.00000000E+00  0.00000000E+00  0.00000000E+00
 -2.56654768E-02  0.00000000E+00  0.00000000E+00  0.00000000E+00  1.01712778E-16
  0.00000000E+00  0.00000000E+00 -9.30040179E-17  0.00000000E+00  0.00000000E+00
  0.00000000E+00  3.21710738E-01  0.00000000E+00  0.00000000E+00  0.00000000E+00
  4.80378363E-01  0.00000000E+00  0.00000000E+00  0.00000000E+00  4.02864387E-01
  0.00000000E+00  0.00000000E+00  0.00000000E+00  2.51223911E-02  0.00000000E+00
  0.00000000E+00  0.00000000E+00  0.00000000E+00  0.00000000E+00  0.00000000E+00
  0.00000000E+00  0.00000000E+00  0.00000000E+00  0.00000000E+00  0.00000000E+00
  3.21710738E-01  0.00000000E+00  0.00000000E+00  0.00000000E+00  4.80378363E-01
  0.00000000E+00  0.00000000E+00  0.00000000E+00  4.02864387E-01  0.00000000E+00
  0.00000000E+00  0.00000000E+00  2.51223911E-02  0.00000000E+00  0.00000000E+00
  0.00000000E+00  0.00000000E+00  0.00000000E+00  0.00000000E+00  0.00000000E+00
  0.00000000E+00  3.21710738E-01  0.00000000E+00  0.00000000E+00  0.00000000E+00
  4.80378363E-01  0.00000000E+00  0.00000000E+00  0.00000000E+00  4.02864387E-01
  0.00000000E+00  0.00000000E+00  0.00000000E+00  2.51223911E-02  0.00000000E+00
  0.00000000E+00  0.00000000E+00  0.00000000E+00  0.00000000E+00  0.00000000E+00
  4.36446867E-02  7.26149031E-02  0.00000000E+00  0.00000000E+00  0.00000000E+00
 -2.55500865E-01  0.00000000E+00  0.00000000E+00  0.00000000E+00 -7.52244001E-01
  0.00000000E+00  0.00000000E+00  0.00000000E+00  1.48416186E+00  0.00000000E+00
  0.00000000E+00  0.00000000E+00  6.09162091E-16  0.00000000E+00  0.00000000E+00
  1.86641901E-16  0.00000000E+00  0.00000000E+00  0.00000000E+00  0.00000000E+00
  0.00000000E+00 -1.33168850E-01  0.00000000E+00  0.00000000E+00  0.00000000E+00
 -1.79800483E-01  0.00000000E+00  0.00000000E+00  0.00000000E+00 -3.14288433E-01
  0.00000000E+00  0.00000000E+00  0.00000000E+00  1.16570401E+00  0.00000000E+00
  0.00000000E+00  0.00000000E+00  0.00000000E+00  0.00000000E+00  0.00000000E+00
  0.00000000E+00  0.00000000E+00 -1.33168850E-01  0.00000000E+00  0.00000000E+00
  0.00000000E+00 -1.79800483E-01  0.00000000E+00  0.00000000E+00  0.00000000E+00
 -3.14288433E-01  0.00000000E+00  0.00000000E+00  0.00000000E+00  1.16570401E+00
  0.00000000E+00  0.00000000E+00  0.00000000E+00  0.00000000E+00  0.00000000E+00
  0.00000000E+00  0.00000000E+00  0.00000000E+00 -1.33168850E-01  0.00000000E+00
  0.00000000E+00  0.00000000E+00 -1.79800483E-01  0.00000000E+00  0.00000000E+00
  0.00000000E+00 -3.14288433E-01  0.00000000E+00  0.00000000E+00  0.00000000E+00
  1.16570401E+00  0.00000000E+00  0.00000000E+00  0.00000000E+00  0.00000000E+00
  0.00000000E+00  0.00000000E+00  0.00000000E+00  0.00000000E+00  0.00000000E+00
 -2.64318245E-01  0.00000000E+00  0.00000000E+00  0.00000000E+00 -7.88468529E-01
  0.00000000E+00  0.00000000E+00  0.00000000E+00  1.67334418E+00  0.00000000E+00
  0.00000000E+00  0.00000000E+00 -8.97684451E-01  0.00000000E+00  0.00000000E+00
  0.00000000E+00  0.00000000E+00  0.00000000E+00  0.00000000E+00  0.00000000E+00
  0.00000000E+00  0.00000000E+00  0.00000000E+00  0.00000000E+00 -2.64318245E-01
  0.00000000E+00  0.00000000E+00  0.00000000E+00 -7.88468529E-01  0.00000000E+00
  0.00000000E+00  0.00000000E+00  1.67334418E+00  0.00000000E+00  0.00000000E+00
  0.00000000E+00 -8.97684451E-01  0.00000000E+00  0.00000000E+00  0.00000000E+00
  0.00000000E+00  0.00000000E+00  0.00000000E+00  0.00000000E+00  0.00000000E+00
 -2.64318245E-01  0.00000000E+00  0.00000000E+00  0.00000000E+00 -7.88468529E-01
  0.00000000E+00  0.00000000E+00  0.00000000E+00  1.67334418E+00  0.00000000E+00
  0.00000000E+00  0.00000000E+00 -8.97684451E-01  0.00000000E+00  0.00000000E+00
  0.00000000E+00  0.00000000E+00  0.00000000E+00  0.00000000E+00  1.19335928E-01
  2.35412695E-01  0.00000000E+00  0.00000000E+00  0.00000000E+00 -1.76936128E+00
  0.00000000E+00  0.00000000E+00  0.00000000E+00  2.56883442E+00  0.00000000E+00
  0.00000000E+00  0.00000000E+00 -1.23437939E+00  0.00000000E+00  0.00000000E+00
  0.00000000E+00  9.02964609E-17  0.00000000E+00  0.00000000E+00  1.81724835E-15
  0.00000000E+00  0.00000000E+00  0.00000000E+00  0.00000000E+00  0.00000000E+00
  0.00000000E+00  0.00000000E+00  0.00000000E+00  0.00000000E+00  0.00000000E+00
  0.00000000E+00  0.00000000E+00  0.00000000E+00  0.00000000E+00  0.00000000E+00
  0.00000000E+00  0.00000000E+00  0.00000000E+00  0.00000000E+00  0.00000000E+00
  0.00000000E+00  0.00000000E+00  1.00000000E+00  0.00000000E+00  0.00000000E+00
  0.00000000E+00  0.00000000E+00  0.00000000E+00  0.00000000E+00  0.00000000E+00
  0.00000000E+00  0.00000000E+00  0.00000000E+00  0.00000000E+00  0.00000000E+00
  0.00000000E+00  0.00000000E+00  0.00000000E+00  0.00000000E+00  0.00000000E+00
  0.00000000E+00  1.00000000E+00  0.00000000E+00  0.00000000E+00  0.00000000E+00
  0.00000000E+00  0.00000000E+00  0.00000000E+00  0.00000000E+00  0.00000000E+00
  0.00000000E+00  0.00000000E+00  0.00000000E+00  0.00000000E+00  0.00000000E+00
  0.00000000E+00  0.00000000E+00  0.00000000E+00  0.00000000E+00  0.00000000E+00
  0.00000000E+00  0.00000000E+00  0.00000000E+00  0.00000000E+00  1.00000000E+00
  0.00000000E+00  0.00000000E+00  1.47969658E-17 -1.80028126E-16  0.00000000E+00
  0.00000000E+00  0.00000000E+00  1.11475229E-15  0.00000000E+00  0.00000000E+00
  0.00000000E+00 -1.23026283E-15  0.00000000E+00  0.00000000E+00  0.00000000E+00
 -1.67947884E-16  0.00000000E+00  0.00000000E+00  0.00000000E+00  9.93408494E-01
  0.00000000E+00  0.00000000E+00  1.14627940E-01  0.00000000E+00 -3.32185151E-16
 -5.23758358E-16  0.00000000E+00  0.00000000E+00  0.00000000E+00  3.91278009E-15
  0.00000000E+00  0.00000000E+00  0.00000000E+00 -5.88979277E-15  0.00000000E+00
  0.00000000E+00  0.00000000E+00  3.23438192E-15  0.00000000E+00  0.00000000E+00
  0.00000000E+00 -1.14627940E-01  0.00000000E+00  0.00000000E+00  9.93408494E-01
  0.00000000E+00  0.00000000E+00  0.00000000E+00  0.00000000E+00  0.00000000E+00
 -1.26948696E+00  0.00000000E+00  0.00000000E+00  0.00000000E+00  1.52714998E+00
  0.00000000E+00  0.00000000E+00  0.00000000E+00 -8.73180439E-01  0.00000000E+00
  0.00000000E+00  0.00000000E+00  3.24171997E-01  0.00000000E+00  0.00000000E+00
  0.00000000E+00  0.00000000E+00  0.00000000E+00  0.00000000E+00  0.00000000E+00
 -1.26948696E+00  0.00000000E+00  0.00000000E+00  0.00000000E+00  1.52714998E+00
  0.00000000E+00  0.00000000E+00  0.00000000E+00 -8.73180439E-01  0.00000000E+00
  0.00000000E+00  0.00000000E+00  3.24171997E-01  0.00000000E+00  0.00000000E+00
  0.00000000E+00  0.00000000E+00  0.00000000E+00  0.00000000E+00  0.00000000E+00
  0.00000000E+00  0.00000000E+00  0.00000000E+00 -1.26948696E+00  0.00000000E+00
  0.00000000E+00  0.00000000E+00  1.52714998E+00  0.00000000E+00  0.00000000E+00
  0.00000000E+00 -8.73180439E-01  0.00000000E+00  0.00000000E+00  0.00000000E+00
  3.24171997E-01  0.00000000E+00  0.00000000E+00  0.00000000E+00  0.00000000E+00
  0.00000000E+00  0.00000000E+00 -2.24553740E+00  2.33073171E+00  0.00000000E+00
  0.00000000E+00  0.00000000E+00 -2.50488604E-01  0.00000000E+00  0.00000000E+00
  0.00000000E+00  2.30629700E-01  0.00000000E+00  0.00000000E+00  0.00000000E+00
 -9.21320672E-02  0.00000000E+00  0.00000000E+00  0.00000000E+00  2.75272959E-17
  0.00000000E+00  0.00000000E+00 -9.98587969E-18  0.00000000E+00
Orthonormal basis                          R   N=         484
  2.40254389E-01  2.48108308E-01  0.00000000E+00  0.00000000E+00  0.00000000E+00
  3.12714494E-01  0.00000000E+00  0.00000000E+00  0.00000000E+00  3.09388206E-01
  0.00000000E+00  0.00000000E+00  0.00000000E+00  2.48983539E-01  0.00000000E+00
  0.00000000E+00  0.00000000E+00  0.00000000E+00  0.00000000E+00  0.00000000E+00
  0.00000000E+00  0.00000000E+00  4.37612213E-01  4.31375527E-01  0.00000000E+00
  0.00000000E+00  0.00000000E+00 -8.77440131E-02  0.00000000E+00  0.00000000E+00
  0.00000000E+00 -3.15852006E-01  0.00000000E+00  0.00000000E+00  0.00000000E+00
 -3.49446382E-01  0.00000000E+00  0.00000000E+00  0.00000000E+00  0.00000000E+00
  0.00000000E+00  0.00000000E+00  0.00000000E+00  0.00000000E+00  0.00000000E+00
  0.00000000E+00  0.00000000E+00  0.00000000E+00  0.00000000E+00  0.00000000E+00
  0.00000000E+00  0.00000000E+00  0.00000000E+00  0.00000000E+00  0.00000000E+00
  0.00000000E+00  0.00000000E+00  0.00000000E+00  0.00000000E+00  0.00000000E+00
  0.00000000E+00  1.00000000E+00  0.00000000E+00  0.00000000E+00  0.00000000E+00
  0.00000000E+00  0.00000000E+00  0.00000000E+00  0.00000000E+00  0.00000000E+00
  0.00000000E+00  0.00000000E+00  0.00000000E+00  0.00000000E+00  0.00000000E+00
  0.00000000E+00  0.00000000E+00  0.00000000E+00  0.00000000E+00  0.00000000E+00
  0.00000000E+00  0.00000000E+00  0.00000000E+00  0.00000000E+00  0.00000000E+00
  0.00000000E+00  1.00000000E+00  0.00000000E+00 -2.92457799E-01 -1.77881569E-01
  0.00000000E+00  0.00000000E+00  0.00000000E+00  1.01803681E+00  0.00000000E+00
  0.00000000E+00  0.00000000E+00  6.58257692E-02  0.00000000E+00  0.00000000E+00
  0.00000000E+00 -9.00952799E-01  0.00000000E+00  0.00000000E+00  0.00000000E+00
  0.00000000E+00  0.00000000E+00  0.00000000E+00  0.00000000E+00  0.00000000E+00
  2.02231300E+00 -1.95618674E+00  0.00000000E+00  0.00000000E+00  0.00000000E+00
 -4.83547008E-01  0.00000000E+00  0.00000000E+00  0.00000000E+00  1.08069896E+00
  0.00000000E+00  0.00000000E+00  0.00000000E+00 -7.37666230E-01  0.00000000E+00
  0.00000000E+00  0.00000000E+00  0.00000000E+00  0.00000000E+00  0.00000000E+00
  0.00000000E+00  0.00000000E+00 -9.78495787E-01  1.28612528E+00  0.00000000E+00
  0.00000000E+00  0.00000000E+00 -1.52706199E+00  0.00000000E+00  0.00000000E+00
  0.00000000E+00  2.46440269E+00  0.00000000E+00  0.00000000E+00  0.00000000E+00
 -1.48175728E+00  0.00000000E+00  0.00000000E+00  0.00000000E+00  0.00000000E+00
  0.00000000E+00  0.00000000E+00  0.00000000E+00  0.00000000E+00  0.00000000E+00
  0.00000000E+00  0.00000000E+00  0.00000000E+00  0.00000000E+00  0.00000000E+00
  0.00000000E+00  0.00000000E+00  0.00000000E+00  0.00000000E+00  0.00000000E+00
  0.00000000E+00  0.00000000E+00  0.00000000E+00  0.00000000E+00  0.00000000E+00
  0.00000000E+00  0.00000000E+00  0.00000000E+00  0.00000000E+00  0.00000000E+00
  1.00000000E+00  0.00000000E+00  0.00000000E+00  0.00000000E+00  0.00000000E+00
  0.00000000E+00  0.00000000E+00  0.00000000E+00  0.00000000E+00  0.00000000E+00
  0.00000000E+00  0.00000000E+00  0.00000000E+00  0.00000000E+00  0.00000000E+00
  0.00000000E+00  0.00000000E+00  0.00000000E+00  0.00000000E+00  1.00000000E+00
  0.00000000E+00  0.00000000E+00  0.00000000E+00  0.00000000E+00  0.00000000E+00
  0.00000000E+00  0.00000000E+00  0.00000000E+00  0.00000000E+00  0.00000000E+00
  0.00000000E+00  0.00000000E+00  0.00000000E+00  0.00000000E+00  0.00000000E+00
  0.00000000E+00  0.00000000E+00  0.00000000E+00  0.00000000E+00  0.00000000E+00
  0.00000000E+00  0.00000000E+00  1.00000000E+00  0.00000000E+00  0.00000000E+00
  0.00000000E+00  0.00000000E+00  0.00000000E+00  0.00000000E+00  2.55873991E-01
  0.00000000E+00  0.00000000E+00  0.00000000E+00  3.72870611E-01  0.00000000E+00
  0.00000000E+00  0.00000000E+00  3.88870282E-01  0.00000000E+00  0.00000000E+00
  0.00000000E+00  2.95582357E-01  0.00000000E+00  0.00000000E+00  0.00000000E+00
  0.00000000E+00  0.00000000E+00  0.00000000E+00  0.00000000E+00  0.00000000E+00
  0.00000000E+00  6.03851608E-01  0.00000000E+00  0.00000000E+00  0.00000000E+00
  3.22837419E-01  0.00000000E+00  0.00000000E+00  0.00000000E+00 -2.97177247E-01