fubar                                                                   
SP        UPBE1PBE                                                    6-311+G(d,p)        
Number of atoms                            I                1
Info1-9                                    I   N=           9
          11          10           0           0           0         110
           1          18       -1302
Full Title                                 C   N=           1
fubar       
Route                                      C   N=           3
#PBE1PBE/6-311+G(d,p) scf=tight     
Charge                                     I                3
Multiplicity                               I                2
Number of electrons                        I                3
Number of alpha electrons                  I                2
Number of beta electrons                   I                1
Number of basis functions                  I               22
Number of independent functions            I               22
Number of point charges in /Mol/           I                0
Number of translation vectors              I                0
Atomic numbers                             I   N=           1
           6
Nuclear charges                            R   N=           1
  6.00000000E+00
Current cartesian coordinates              R   N=           3
  0.00000000E+00  0.00000000E+00  0.00000000E+00
Number of symbols in /Mol/                 I                0
Int Atom Types                             I   N=           1
           0
Force Field                                I                0
Atom Types                                 C   N=           1
            
MM charges                                 R   N=           1
  0.00000000E+00
Integer atomic weights                     I   N=           1
          12
Real atomic weights                        R   N=           1
  1.20000000E+01
Atom fragment info                         I   N=           1
           0
Atom residue num                           I   N=           1
           0
Nuclear spins                              I   N=           1
           0
Nuclear ZEff                               R   N=           1
 -3.60000000E+00
Nuclear ZNuc                               R   N=           1
  6.00000000E+00
Nuclear QMom                               R   N=           1
  0.00000000E+00
Nuclear GFac                               R   N=           1
  0.00000000E+00
MicOpt                                     I   N=           1
          -1
Number of residues                         I                0
Number of secondary structures             I                0
SymInf integers                            I   N=          26
           1           8           1           1           1           1
          -1          -1          -1           1          -1          -1
          -1           1          -1          -1          -1          -1
           1           1           1          -1           1           1
           1          -1
RotTr to input orientation                 R   N=          12
  0.00000000E+00  0.00000000E+00 -1.00000000E+00  0.00000000E+00  1.00000000E+00
  0.00000000E+00  1.00000000E+00  0.00000000E+00  0.00000000E+00  0.00000000E+00
  0.00000000E+00  0.00000000E+00
Number of contracted shells                I                6
Number of primitive shells                 I               13
Pure/Cartesian d shells                    I                0
Pure/Cartesian f shells                    I                0
Highest angular momentum                   I                2
Largest degree of contraction              I                6
Shell types                                I   N=           6
           0          -1          -1          -1          -1          -2
Number of primitives per shell             I   N=           6
           6           3           1           1           1           1
Shell to atom map                          I   N=           6
           1           1           1           1           1           1
Primitive exponents                        R   N=          13
  4.56324000E+03  6.82024000E+02  1.54973000E+02  4.44553000E+01  1.30290000E+01
  1.82773000E+00  2.09642000E+01  4.80331000E+00  1.45933000E+00  4.83456000E-01
  1.45585000E-01  4.38000000E-02  6.26000000E-01
Contraction coefficients                   R   N=          13
  1.96665025E-03  1.52306019E-02  7.61269097E-02  2.60801033E-01  6.16462078E-01
  2.21006028E-01  1.14660081E-01  9.19999648E-01 -3.03068213E-03  1.00000000E+00
  1.00000000E+00  1.00000000E+00  1.00000000E+00
P(S=P) Contraction coefficients            R   N=          13
  0.00000000E+00  0.00000000E+00  0.00000000E+00  0.00000000E+00  0.00000000E+00
  0.00000000E+00  4.02486927E-02  2.37593957E-01  8.15853851E-01  1.00000000E+00
  1.00000000E+00  1.00000000E+00  0.00000000E+00
Coordinates of each shell                  R   N=          18
  0.00000000E+00  0.00000000E+00  0.00000000E+00  0.00000000E+00  0.00000000E+00
  0.00000000E+00  0.00000000E+00  0.00000000E+00  0.00000000E+00  0.00000000E+00
  0.00000000E+00  0.00000000E+00  0.00000000E+00  0.00000000E+00  0.00000000E+00
  0.00000000E+00  0.00000000E+00  0.00000000E+00
Num ILSW                                   I              100
ILSW                                       I   N=         100
           1           0           0           0           2           0
           0           0           0           0        1009          -1
           5           0           0           0           0           0
           0           0           0           0           0           0
           1           0           0           0           0           0
           0           0      100000           0          -1           0
           0           0           0           0           0           0
           0           0           0           1           0           0
           0 -2000000000           1           0           0           0
           0           0           4          52           0           0
           0           0          13           0           0           0
           0           0           0           1           0           1
           0           0           0           0           0           0
           0           0           0           0           0           0
           0           0           0           0           0           0
           0           0           0           0           0           0
           0           0           0           0
Num RLSW                                   I               52
RLSW                                       R   N=          52
  7.50000000E-01  7.50000000E-01  1.00000000E+00  1.00000000E+00  2.50000000E-01
  0.00000000E+00  0.00000000E+00  1.00000000E+00  0.00000000E+00  0.00000000E+00
  0.00000000E+00  0.00000000E+00  1.00000000E+00  0.00000000E+00  0.00000000E+00
  0.00000000E+00  0.00000000E+00  1.00000000E+00  0.00000000E+00  0.00000000E+00
  0.00000000E+00  0.00000000E+00  1.00000000E+00  0.00000000E+00  0.00000000E+00
  0.00000000E+00  0.00000000E+00  1.00000000E+00  0.00000000E+00  0.00000000E+00
  0.00000000E+00  0.00000000E+00  1.00000000E+00  0.00000000E+00  0.00000000E+00
  0.00000000E+00  0.00000000E+00  0.00000000E+00  1.00000000E+00  1.00000000E+00
  0.00000000E+00  1.00000000E+00  0.00000000E+00  0.00000000E+00  0.00000000E+00
  0.00000000E+00  0.00000000E+00  0.00000000E+00  0.00000000E+00  0.00000000E+00
  0.00000000E+00  0.00000000E+00
MxBond                                     I                1
NBond                                      I   N=           1
           0
IBond                                      I   N=           1
           0
RBond                                      R   N=           1
  0.00000000E+00
Virial Ratio                               R      2.003862439684051E+00
SCF Energy                                 R     -3.473777007497362E+01
Total Energy                               R     -3.473777007497362E+01
S**2                                       R      7.500009034424608E-01
S**2 after annihilation                    R      7.499999999999996E-01
RMS Density                                R      1.956291551871396E-09
Job Status                                 I                1
Nuclear derivative order                   I                0
External E-field                           R   N=          35
  0.00000000E+00  0.00000000E+00  0.00000000E+00  0.00000000E+00  0.00000000E+00
  0.00000000E+00  0.00000000E+00  0.00000000E+00  0.00000000E+00  0.00000000E+00
  0.00000000E+00  0.00000000E+00  0.00000000E+00  0.00000000E+00  0.00000000E+00
  0.00000000E+00  0.00000000E+00  0.00000000E+00  0.00000000E+00  0.00000000E+00
  0.00000000E+00  0.00000000E+00  0.00000000E+00  0.00000000E+00  0.00000000E+00
  0.00000000E+00  0.00000000E+00  0.00000000E+00  0.00000000E+00  0.00000000E+00
  0.00000000E+00  0.00000000E+00  0.00000000E+00  0.00000000E+00  0.00000000E+00
IOpCl                                      I                1
IROHF                                      I                0
Alpha Orbital Energies                     R   N=          22
 -1.25488497E+01 -2.18509251E+00 -1.74352352E+00 -1.74352352E+00 -1.74352352E+00
 -7.30806595E-01 -6.48644140E-01 -6.48644140E-01 -6.48644140E-01 -3.26181224E-01
 -3.21173611E-01 -3.21173611E-01 -3.21173611E-01 -1.82766286E-01 -1.82766286E-01
 -1.82766286E-01 -1.82766286E-01 -1.82766286E-01  1.05576311E+00  1.05576311E+00
  1.05576311E+00  2.10878800E+01
Beta Orbital Energies                      R   N=          22
 -1.25003848E+01 -1.82517293E+00 -1.54872296E+00 -1.54872296E+00 -1.54872296E+00
 -6.55080661E-01 -5.84257195E-01 -5.84257195E-01 -5.84257195E-01 -2.89220920E-01
 -2.89220920E-01 -2.89220920E-01 -2.71046388E-01  4.87999773E-02  4.87999773E-02
  4.87999773E-02  4.87999773E-02  4.87999773E-02  1.17521291E+00  1.17521291E+00
  1.17521291E+00  2.11665028E+01
Alpha MO coefficients                      R   N=         484
  5.66812650E-01  4.63435106E-01  0.00000000E+00  0.00000000E+00  0.00000000E+00
  4.00270147E-03  0.00000000E+00  0.00000000E+00  0.00000000E+00 -2.03005315E-03
  0.00000000E+00  0.00000000E+00  0.00000000E+00  6.87316259E-04  0.00000000E+00
  0.00000000E+00  0.00000000E+00 -5.46409804E-16  0.00000000E+00  0.00000000E+00
 -5.02715594E-16  0.00000000E+00 -1.60348177E-01 -2.53230081E-01  0.00000000E+00
  0.00000000E+00  0.00000000E+00  9.91661867E-01  0.00000000E+00  0.00000000E+00
  0.00000000E+00  1.14647292E-01  0.00000000E+00  0.00000000E+00  0.00000000E+00
 -2.50323444E-03  0.00000000E+00  0.00000000E+00  0.00000000E+00 -7.25871531E-16
  0.00000000E+00  0.00000000E+00  1.13590670E-16  0.00000000E+00  0.00000000E+00
  0.00000000E+00  0.00000000E+00  4.65504755E-01  0.00000000E+00  0.00000000E+00
  0.00000000E+00  5.90989780E-01  0.00000000E+00  0.00000000E+00  0.00000000E+00
  8.55442868E-02  0.00000000E+00  0.00000000E+00  0.00000000E+00 -7.15893174E-03
  0.00000000E+00  0.00000000E+00  0.00000000E+00  0.00000000E+00  0.00000000E+00
  0.00000000E+00  0.00000000E+00  0.00000000E+00  4.65504755E-01  0.00000000E+00
  0.00000000E+00  0.00000000E+00  5.90989780E-01  0.00000000E+00  0.00000000E+00
  0.00000000E+00  8.55442868E-02  0.00000000E+00  0.00000000E+00  0.00000000E+00
 -7.15893174E-03  0.00000000E+00  0.00000000E+00  0.00000000E+00  0.00000000E+00
  0.00000000E+00  0.00000000E+00  0.00000000E+00  0.00000000E+00  0.00000000E+00
  0.00000000E+00  0.00000000E+00  4.65504755E-01  0.00000000E+00  0.00000000E+00
  0.00000000E+00  5.90989780E-01  0.00000000E+00  0.00000000E+00  0.00000000E+00
  8.55442868E-02  0.00000000E+00  0.00000000E+00  0.00000000E+00 -7.15893174E-03
  0.00000000E+00  0.00000000E+00  0.00000000E+00  0.00000000E+00  0.00000000E+00
 -7.91432444E-02 -1.41175751E-01  0.00000000E+00  0.00000000E+00  0.00000000E+00
  1.08027010E+00  0.00000000E+00  0.00000000E+00  0.00000000E+00 -9.18838619E-01
  0.00000000E+00  0.00000000E+00  0.00000000E+00 -5.36835672E-01  0.00000000E+00
  0.00000000E+00  0.00000000E+00  5.42680658E-16  0.00000000E+00  0.00000000E+00
  1.53624429E-15  0.00000000E+00  0.00000000E+00  0.00000000E+00 -2.86599881E-01
  0.00000000E+00  0.00000000E+00  0.00000000E+00 -3.55604697E-01  0.00000000E+00
  0.00000000E+00  0.00000000E+00  9.09548390E-01  0.00000000E+00  0.00000000E+00
  0.00000000E+00  2.90654349E-01  0.00000000E+00  0.00000000E+00  0.00000000E+00
  0.00000000E+00  0.00000000E+00  0.00000000E+00  0.00000000E+00  0.00000000E+00
  0.00000000E+00  0.00000000E+00  0.00000000E+00 -2.86599881E-01  0.00000000E+00
  0.00000000E+00  0.00000000E+00 -3.55604697E-01  0.00000000E+00  0.00000000E+00
  0.00000000E+00  9.09548390E-01  0.00000000E+00  0.00000000E+00  0.00000000E+00
  2.90654349E-01  0.00000000E+00  0.00000000E+00  0.00000000E+00  0.00000000E+00
  0.00000000E+00  0.00000000E+00  0.00000000E+00  0.00000000E+00 -2.86599881E-01
  0.00000000E+00  0.00000000E+00  0.00000000E+00 -3.55604697E-01  0.00000000E+00
  0.00000000E+00  0.00000000E+00  9.09548390E-01  0.00000000E+00  0.00000000E+00
  0.00000000E+00  2.90654349E-01  0.00000000E+00  0.00000000E+00  0.00000000E+00
  0.00000000E+00  0.00000000E+00  0.00000000E+00  7.12498433E-02  1.34614135E-01
  0.00000000E+00  0.00000000E+00  0.00000000E+00 -1.32623694E+00  0.00000000E+00
  0.00000000E+00  0.00000000E+00  2.49334792E+00  0.00000000E+00  0.00000000E+00
  0.00000000E+00 -1.72684480E+00  0.00000000E+00  0.00000000E+00  0.00000000E+00
 -1.13369104E-14  0.00000000E+00  0.00000000E+00 -1.58147331E-14  0.00000000E+00
  0.00000000E+00  0.00000000E+00  0.00000000E+00  2.18430878E-01  0.00000000E+00
  0.00000000E+00  0.00000000E+00  2.74403492E-01  0.00000000E+00  0.00000000E+00
  0.00000000E+00 -1.27016478E+00  0.00000000E+00  0.00000000E+00  0.00000000E+00
  1.33429234E+00  0.00000000E+00  0.00000000E+00  0.00000000E+00  0.00000000E+00
  0.00000000E+00  0.00000000E+00  0.00000000E+00  0.00000000E+00  2.18430878E-01
  0.00000000E+00  0.00000000E+00  0.00000000E+00  2.74403492E-01  0.00000000E+00
  0.00000000E+00  0.00000000E+00 -1.27016478E+00  0.00000000E+00  0.00000000E+00
  0.00000000E+00  1.33429234E+00  0.00000000E+00  0.00000000E+00  0.00000000E+00
  0.00000000E+00  0.00000000E+00  0.00000000E+00  0.00000000E+00  0.00000000E+00
  0.00000000E+00  0.00000000E+00  0.00000000E+00  2.18430878E-01  0.00000000E+00
  0.00000000E+00  0.00000000E+00  2.74403492E-01  0.00000000E+00  0.00000000E+00
  0.00000000E+00 -1.27016478E+00  0.00000000E+00  0.00000000E+00  0.00000000E+00
  1.33429234E+00  0.00000000E+00  0.00000000E+00  0.00000000E+00  0.00000000E+00
  0.00000000E+00  0.00000000E+00  0.00000000E+00  0.00000000E+00  0.00000000E+00
  0.00000000E+00  0.00000000E+00  0.00000000E+00  0.00000000E+00  0.00000000E+00
  0.00000000E+00  0.00000000E+00  0.00000000E+00  0.00000000E+00  0.00000000E+00
  0.00000000E+00  0.00000000E+00  0.00000000E+00  0.00000000E+00  1.00000000E+00
  0.00000000E+00  0.00000000E+00  0.00000000E+00  0.00000000E+00  0.00000000E+00
  0.00000000E+00  0.00000000E+00  0.00000000E+00  0.00000000E+00  0.00000000E+00
  0.00000000E+00  0.00000000E+00  0.00000000E+00  0.00000000E+00  0.00000000E+00
  0.00000000E+00  0.00000000E+00  0.00000000E+00  0.00000000E+00  0.00000000E+00
  0.00000000E+00  0.00000000E+00  1.00000000E+00  0.00000000E+00  0.00000000E+00
  0.00000000E+00  0.00000000E+00  0.00000000E+00  0.00000000E+00  0.00000000E+00
  0.00000000E+00  0.00000000E+00  0.00000000E+00  0.00000000E+00  0.00000000E+00
  0.00000000E+00  0.00000000E+00  0.00000000E+00  0.00000000E+00  0.00000000E+00
  0.00000000E+00  0.00000000E+00  0.00000000E+00  0.00000000E+00  0.00000000E+00
  0.00000000E+00  1.00000000E+00  1.41082854E-15  2.60086133E-15  0.00000000E+00
  0.00000000E+00  0.00000000E+00 -2.62187082E-14  0.00000000E+00  0.00000000E+00
  0.00000000E+00  4.86200236E-14  0.00000000E+00  0.00000000E+00  0.00000000E+00
 -3.20892834E-14  0.00000000E+00  0.00000000E+00  0.00000000E+00  3.90763155E-01
  0.00000000E+00  0.00000000E+00  9.20491258E-01  0.00000000E+00  2.53087113E-16
  5.44216881E-16  0.00000000E+00  0.00000000E+00  0.00000000E+00 -6.35790975E-15
  0.00000000E+00  0.00000000E+00  0.00000000E+00  1.27493681E-14  0.00000000E+00
  0.00000000E+00  0.00000000E+00 -8.46355457E-15  0.00000000E+00  0.00000000E+00
  0.00000000E+00  9.20491258E-01  0.00000000E+00  0.00000000E+00 -3.90763155E-01
  0.00000000E+00  0.00000000E+00  0.00000000E+00  0.00000000E+00  0.00000000E+00
 -1.24557427E+00  0.00000000E+00  0.00000000E+00  0.00000000E+00  1.72924321E+00
  0.00000000E+00  0.00000000E+00  0.00000000E+00 -1.12969472E+00  0.00000000E+00
  0.00000000E+00  0.00000000E+00  4.16290545E-01  0.00000000E+00  0.00000000E+00
  0.00000000E+00  0.00000000E+00  0.00000000E+00  0.00000000E+00  0.00000000E+00
  0.00000000E+00 -1.24557427E+00  0.00000000E+00  0.00000000E+00  0.00000000E+00
  1.72924321E+00  0.00000000E+00  0.00000000E+00  0.00000000E+00 -1.12969472E+00
  0.00000000E+00  0.00000000E+00  0.00000000E+00  4.16290545E-01  0.00000000E+00
  0.00000000E+00  0.00000000E+00  0.00000000E+00  0.00000000E+00  0.00000000E+00
  0.00000000E+00  0.00000000E+00 -1.24557427E+00  0.00000000E+00  0.00000000E+00
  0.00000000E+00  1.72924321E+00  0.00000000E+00  0.00000000E+00  0.00000000E+00
 -1.12969472E+00  0.00000000E+00  0.00000000E+00  0.00000000E+00  4.16290545E-01
  0.00000000E+00  0.00000000E+00  0.00000000E+00  0.00000000E+00  0.00000000E+00
  0.00000000E+00  0.00000000E+00 -2.02235307E+00  2.16373546E+00  0.00000000E+00
  0.00000000E+00  0.00000000E+00 -4.21774639E-01  0.00000000E+00  0.00000000E+00
  0.00000000E+00  3.38424992E-01  0.00000000E+00  0.00000000E+00  0.00000000E+00
 -1.21138568E-01  0.00000000E+00  0.00000000E+00  0.00000000E+00  1.47230823E-17
  0.00000000E+00  0.00000000E+00  2.88289921E-17  0.00000000E+00
Beta MO coefficients                       R   N=         484
  5.64904378E-01  4.65405271E-01  0.00000000E+00  0.00000000E+00  0.00000000E+00
  3.96454487E-03  0.00000000E+00  0.00000000E+00  0.00000000E+00 -2.18238014E-03
  0.00000000E+00  0.00000000E+00  0.00000000E+00  7.51060911E-04  0.00000000E+00
  0.00000000E+00  0.00000000E+00  4.02352704E-17  0.00000000E+00  0.00000000E+00
  1.63825283E-16  0.00000000E+00 -1.61112268E-01 -2.47632330E-01  0.00000000E+00
  0.00000000E+00  0.00000000E+00  9.67609260E-01  0.00000000E+00  0.00000000E+00
  0.00000000E+00  1.38038539E-01  0.00000000E+00  0.00000000E+00  0.00000000E+00
  3.49345157E-03  0.00000000E+00  0.00000000E+00  0.00000000E+00 -3.76563007E-16
  0.00000000E+00  0.00000000E+00  4.51965548E-16  0.00000000E+00  0.00000000E+00
  0.00000000E+00  5.06253887E-01  0.00000000E+00  0.00000000E+00  0.00000000E+00
  5.40822229E-01  0.00000000E+00  0.00000000E+00  0.00000000E+00  1.06895640E-01
  0.00000000E+00  0.00000000E+00  0.00000000E+00 -9.46149725E-03  0.00000000E+00
  0.00000000E+00  0.00000000E+00  0.00000000E+00  0.00000000E+00  0.00000000E+00
  0.00000000E+00  0.00000000E+00  0.00000000E+00  0.00000000E+00  0.00000000E+00
  5.06253887E-01  0.00000000E+00  0.00000000E+00  0.00000000E+00  5.40822229E-01
  0.00000000E+00  0.00000000E+00  0.00000000E+00  1.06895640E-01  0.00000000E+00
  0.00000000E+00  0.00000000E+00 -9.46149725E-03  0.00000000E+00  0.00000000E+00
  0.00000000E+00  0.00000000E+00  0.00000000E+00  0.00000000E+00  0.00000000E+00
  0.00000000E+00  5.06253887E-01  0.00000000E+00  0.00000000E+00  0.00000000E+00
  5.40822229E-01  0.00000000E+00  0.00000000E+00  0.00000000E+00  1.06895640E-01
  0.00000000E+00  0.00000000E+00  0.00000000E+00 -9.46149725E-03  0.00000000E+00
  0.00000000E+00  0.00000000E+00  0.00000000E+00  0.00000000E+00  0.00000000E+00
 -7.28426470E-02 -1.26345404E-01  0.00000000E+00  0.00000000E+00  0.00000000E+00
  9.15835874E-01  0.00000000E+00  0.00000000E+00  0.00000000E+00 -5.83227515E-01
  0.00000000E+00  0.00000000E+00  0.00000000E+00 -7.57591513E-01  0.00000000E+00
  0.00000000E+00  0.00000000E+00  4.05971343E-16  0.00000000E+00  0.00000000E+00
  2.11631558E-15  0.00000000E+00  0.00000000E+00  0.00000000E+00 -2.52311646E-01
  0.00000000E+00  0.00000000E+00  0.00000000E+00 -3.26444518E-01  0.00000000E+00
  0.00000000E+00  0.00000000E+00  7.55605025E-01  0.00000000E+00  0.00000000E+00
  0.00000000E+00  4.46756301E-01  0.00000000E+00  0.00000000E+00  0.00000000E+00
  0.00000000E+00  0.00000000E+00  0.00000000E+00  0.00000000E+00  0.00000000E+00
  0.00000000E+00  0.00000000E+00  0.00000000E+00 -2.52311646E-01  0.00000000E+00
  0.00000000E+00  0.00000000E+00 -3.26444518E-01  0.00000000E+00  0.00000000E+00
  0.00000000E+00  7.55605025E-01  0.00000000E+00  0.00000000E+00  0.00000000E+00
  4.46756301E-01  0.00000000E+00  0.00000000E+00  0.00000000E+00  0.00000000E+00
  0.00000000E+00  0.00000000E+00  0.00000000E+00  0.00000000E+00 -2.52311646E-01
  0.00000000E+00  0.00000000E+00  0.00000000E+00 -3.26444518E-01  0.00000000E+00
  0.00000000E+00  0.00000000E+00  7.55605025E-01  0.00000000E+00  0.00000000E+00
  0.00000000E+00  4.46756301E-01  0.00000000E+00  0.00000000E+00  0.00000000E+00
  0.00000000E+00  0.00000000E+00  0.00000000E+00  0.00000000E+00  0.00000000E+00
 -2.27898348E-01  0.00000000E+00  0.00000000E+00  0.00000000E+00 -3.37016088E-01
  0.00000000E+00  0.00000000E+00  0.00000000E+00  1.38808099E+00  0.00000000E+00
  0.00000000E+00  0.00000000E+00 -1.29619866E+00  0.00000000E+00  0.00000000E+00
  0.00000000E+00  0.00000000E+00  0.00000000E+00  0.00000000E+00  0.00000000E+00
  0.00000000E+00  0.00000000E+00  0.00000000E+00  0.00000000E+00 -2.27898348E-01
  0.00000000E+00  0.00000000E+00  0.00000000E+00 -3.37016088E-01  0.00000000E+00
  0.00000000E+00  0.00000000E+00  1.38808099E+00  0.00000000E+00  0.00000000E+00
  0.00000000E+00 -1.29619866E+00  0.00000000E+00  0.00000000E+00  0.00000000E+00
  0.00000000E+00  0.00000000E+00  0.00000000E+00  0.00000000E+00  0.00000000E+00
 -2.27898348E-01  0.00000000E+00  0.00000000E+00  0.00000000E+00 -3.37016088E-01
  0.00000000E+00  0.00000000E+00  0.00000000E+00  1.38808099E+00  0.00000000E+00
  0.00000000E+00  0.00000000E+00 -1.29619866E+00  0.00000000E+00  0.00000000E+00
  0.00000000E+00  0.00000000E+00  0.00000000E+00  0.00000000E+00  8.20471217E-02
  1.52893913E-01  0.00000000E+00  0.00000000E+00  0.00000000E+00 -1.46043369E+00
  0.00000000E+00  0.00000000E+00  0.00000000E+00  2.59128439E+00  0.00000000E+00
  0.00000000E+00  0.00000000E+00 -1.64202583E+00  0.00000000E+00  0.00000000E+00
  0.00000000E+00 -4.42973199E-15  0.00000000E+00  0.00000000E+00 -7.92064536E-15
  0.00000000E+00  0.00000000E+00  0.00000000E+00  0.00000000E+00  0.00000000E+00
  0.00000000E+00  0.00000000E+00  0.00000000E+00  0.00000000E+00  0.00000000E+00
  0.00000000E+00  0.00000000E+00  0.00000000E+00  0.00000000E+00  0.00000000E+00
  0.00000000E+00  0.00000000E+00  0.00000000E+00  0.00000000E+00  0.00000000E+00
  0.00000000E+00  0.00000000E+00  1.00000000E+00  0.00000000E+00  0.00000000E+00
  0.00000000E+00  0.00000000E+00  0.00000000E+00  0.00000000E+00  0.00000000E+00
  0.00000000E+00  0.00000000E+00  0.00000000E+00  0.00000000E+00  0.00000000E+00
  0.00000000E+00  0.00000000E+00  0.00000000E+00  0.00000000E+00  0.00000000E+00
  0.00000000E+00  1.00000000E+00  0.00000000E+00  0.00000000E+00  0.00000000E+00
  0.00000000E+00  0.00000000E+00  0.00000000E+00  0.00000000E+00  0.00000000E+00
  0.00000000E+00  0.00000000E+00  0.00000000E+00  0.00000000E+00  0.00000000E+00
  0.00000000E+00  0.00000000E+00  0.00000000E+00  0.00000000E+00  0.00000000E+00
  0.00000000E+00  0.00000000E+00  0.00000000E+00  0.00000000E+00  1.00000000E+00
  0.00000000E+00  0.00000000E+00  6.87417370E-16  1.17133979E-15  0.00000000E+00
  0.00000000E+00  0.00000000E+00 -1.09229439E-14  0.00000000E+00  0.00000000E+00
  0.00000000E+00  1.87558938E-14  0.00000000E+00  0.00000000E+00  0.00000000E+00
 -1.09373186E-14  0.00000000E+00  0.00000000E+00  0.00000000E+00  9.31284384E-01
  0.00000000E+00  0.00000000E+00  3.64293008E-01  0.00000000E+00  5.74390028E-16
  1.02525558E-15  0.00000000E+00  0.00000000E+00  0.00000000E+00 -9.83688604E-15
  0.00000000E+00  0.00000000E+00  0.00000000E+00  1.65332608E-14  0.00000000E+00
  0.00000000E+00  0.00000000E+00 -9.77266502E-15  0.00000000E+00  0.00000000E+00
  0.00000000E+00 -3.64293008E-01  0.00000000E+00  0.00000000E+00  9.31284384E-01
  0.00000000E+00  0.00000000E+00  0.00000000E+00  0.00000000E+00  0.00000000E+00
 -1.23535811E+00  0.00000000E+00  0.00000000E+00  0.00000000E+00  1.74030699E+00
  0.00000000E+00  0.00000000E+00  0.00000000E+00 -1.10226602E+00  0.00000000E+00
  0.00000000E+00  0.00000000E+00  3.97936400E-01  0.00000000E+00  0.00000000E+00
  0.00000000E+00  0.00000000E+00  0.00000000E+00  0.00000000E+00  0.00000000E+00
  0.00000000E+00 -1.23535811E+00  0.00000000E+00  0.00000000E+00  0.00000000E+00
  1.74030699E+00  0.00000000E+00  0.00000000E+00  0.00000000E+00 -1.10226602E+00
  0.00000000E+00  0.00000000E+00  0.00000000E+00  3.97936400E-01  0.00000000E+00
  0.00000000E+00  0.00000000E+00  0.00000000E+00  0.00000000E+00  0.00000000E+00
  0.00000000E+00  0.00000000E+00 -1.23535811E+00  0.00000000E+00  0.00000000E+00
  0.00000000E+00  1.74030699E+00  0.00000000E+00  0.00000000E+00  0.00000000E+00
 -1.10226602E+00  0.00000000E+00  0.00000000E+00  0.00000000E+00  3.97936400E-01
  0.00000000E+00  0.00000000E+00  0.00000000E+00  0.00000000E+00  0.00000000E+00
  0.00000000E+00  0.00000000E+00 -2.02265379E+00  2.16366280E+00  0.00000000E+00
  0.00000000E+00  0.00000000E+00 -4.23421457E-01  0.00000000E+00  0.00000000E+00
  0.00000000E+00  3.38761470E-01  0.00000000E+00  0.00000000E+00  0.00000000E+00
 -1.21079793E-01  0.00000000E+00  0.00000000E+00  0.00000000E+00  1.42259055E-17
  0.00000000E+00  0.00000000E+00  3.04684254E-17  0.00000000E+00
Orthonormal basis                          R   N=         484
  2.34500310E-01  2.51032831E-01  0.00000000E+00  0.00000000E+00  0.00000000E+00
  3.16628792E-01  0.00000000E+00  0.00000000E+00  0.00000000E+00  3.12562189E-01
  0.00000000E+00  0.00000000E+00  0.00000000E+00  2.45378104E-01  0.00000000E+00
  0.00000000E+00  0.00000000E+00  8.21350379E-18  0.00000000E+00  0.00000000E+00
  1.64270076E-17  0.00000000E+00  4.47791800E-01  4.32246117E-01  0.00000000E+00
  0.00000000E+00  0.00000000E+00 -9.34438641E-02  0.00000000E+00  0.00000000E+00
  0.00000000E+00 -3.13112702E-01  0.00000000E+00  0.00000000E+00  0.00000000E+00
 -3.50728413E-01  0.00000000E+00  0.00000000E+00  0.00000000E+00 -3.13484455E-17
  0.00000000E+00  0.00000000E+00 -6.26968910E-17  0.00000000E+00  3.94756804E-30
 -8.70637385E-30  0.00000000E+00  0.00000000E+00  0.00000000E+00  2.45218762E-29
  0.00000000E+00  0.00000000E+00  0.00000000E+00 -3.74942061E-29  0.00000000E+00
  0.00000000E+00  0.00000000E+00  2.12552944E-29  0.00000000E+00  0.00000000E+00
  0.00000000E+00  8.94427191E-01  0.00000000E+00  0.00000000E+00 -4.47213595E-01
  0.00000000E+00  7.90935510E-17  6.82727995E-17  0.00000000E+00  0.00000000E+00
  0.00000000E+00 -1.60281548E-16  0.00000000E+00  0.00000000E+00  0.00000000E+00
 -1.18418330E-16  0.00000000E+00  0.00000000E+00  0.00000000E+00  1.26691888E-16
  0.00000000E+00  0.00000000E+00  0.00000000E+00  4.47213595E-01  0.00000000E+00
  0.00000000E+00  8.94427191E-01  0.00000000E+00 -3.25846947E-01 -1.31206246E-01
  0.00000000E+00  0.00000000E+00  0.00000000E+00  9.59027873E-01  0.00000000E+00
  0.00000000E+00  0.00000000E+00  1.08563778E-01  0.00000000E+00  0.00000000E+00
  0.00000000E+00 -9.30158314E-01  0.00000000E+00  0.00000000E+00  0.00000000E+00
  1.37930956E-16  0.00000000E+00  0.00000000E+00  2.75861912E-16  0.00000000E+00
  1.84976794E+00 -1.83528458E+00  0.00000000E+00  0.00000000E+00  0.00000000E+00
 -3.26846453E-01  0.00000000E+00  0.00000000E+00  0.00000000E+00  9.04466787E-01
  0.00000000E+00  0.00000000E+00  0.00000000E+00 -6.20542711E-01  0.00000000E+00
  0.00000000E+00  0.00000000E+00  3.92993035E-17  0.00000000E+00  0.00000000E+00
  7.85986070E-17  0.00000000E+00 -8.15423007E-01  1.16763073E+00  0.00000000E+00
  0.00000000E+00  0.00000000E+00 -1.71803447E+00  0.00000000E+00  0.00000000E+00
  0.00000000E+00  2.48256861E+00  0.00000000E+00  0.00000000E+00  0.00000000E+00
 -1.36065360E+00  0.00000000E+00  0.00000000E+00  0.00000000E+00  8.21131481E-17
  0.00000000E+00  0.00000000E+00  1.64226296E-16  0.00000000E+00  0.00000000E+00
  0.00000000E+00  0.00000000E+00  0.00000000E+00  0.00000000E+00  0.00000000E+00
  0.00000000E+00  0.00000000E+00  0.00000000E+00  0.00000000E+00  0.00000000E+00
  0.00000000E+00  0.00000000E+00  0.00000000E+00  0.00000000E+00  0.00000000E+00
  0.00000000E+00  0.00000000E+00  0.00000000E+00  0.00000000E+00  0.00000000E+00
  1.00000000E+00  0.00000000E+00  0.00000000E+00  0.00000000E+00  0.00000000E+00
  0.00000000E+00  0.00000000E+00  0.00000000E+00  0.00000000E+00  0.00000000E+00
  0.00000000E+00  0.00000000E+00  0.00000000E+00  0.00000000E+00  0.00000000E+00
  0.00000000E+00  0.00000000E+00  0.00000000E+00  0.00000000E+00  1.00000000E+00
  0.00000000E+00  0.00000000E+00  0.00000000E+00  0.00000000E+00  0.00000000E+00
  0.00000000E+00  0.00000000E+00  0.00000000E+00  0.00000000E+00  0.00000000E+00
  0.00000000E+00  0.00000000E+00  0.00000000E+00  0.00000000E+00  0.00000000E+00
  0.00000000E+00  0.00000000E+00  0.00000000E+00  0.00000000E+00  0.00000000E+00
  0.00000000E+00  0.00000000E+00  1.00000000E+00  0.00000000E+00  0.00000000E+00
  0.00000000E+00  0.00000000E+00  0.00000000E+00  0.00000000E+00  2.67356255E-01
  0.00000000E+00  0.00000000E+00  0.00000000E+00  3.79771107E-01  0.00000000E+00
  0.00000000E+00  0.00000000E+00  3.84495861E-01  0.00000000E+00  0.00000000E+00
  0.00000000E+00  2.77500970E-01  0.00000000E+00  0.00000000E+00  0.00000000E+00
  0.00000000E+00  0.00000000E+00  0.00000000E+00  0.00000000E+00  0.00000000E+00
  0.00000000E+00  5.92090527E-01  0.00000000E+00  0.00000000E+00  0.00000000E+00
  3.04840631E-01  0.00000000E+00  0.00000000E+00  0.00000000E+00 -2.96821000E-01