fubar                                                                   
SP        UPBE1PBE                                                    6-311+G(d,p)        
Number of atoms                            I                1
Info1-9                                    I   N=           9
          11          10           0           0           0         110
           1          18       -1302
Full Title                                 C   N=           1
fubar       
Route                                      C   N=           3
#PBE1PBE/6-311+G(d,p) scf=tight     
Charge                                     I               -1
Multiplicity                               I                3
Number of electrons                        I                8
Number of alpha electrons                  I                5
Number of beta electrons                   I                3
Number of basis functions                  I               22
Number of independent functions            I               22
Number of point charges in /Mol/           I                0
Number of translation vectors              I                0
Atomic numbers                             I   N=           1
           7
Nuclear charges                            R   N=           1
  7.00000000E+00
Current cartesian coordinates              R   N=           3
  0.00000000E+00  0.00000000E+00  0.00000000E+00
Number of symbols in /Mol/                 I                0
Int Atom Types                             I   N=           1
           0
Force Field                                I                0
Atom Types                                 C   N=           1
            
MM charges                                 R   N=           1
  0.00000000E+00
Integer atomic weights                     I   N=           1
          14
Real atomic weights                        R   N=           1
  1.40030740E+01
Atom fragment info                         I   N=           1
           0
Atom residue num                           I   N=           1
           0
Nuclear spins                              I   N=           1
           2
Nuclear ZEff                               R   N=           1
 -4.55000000E+00
Nuclear ZNuc                               R   N=           1
  7.00000000E+00
Nuclear QMom                               R   N=           1
  2.04400000E+00
Nuclear GFac                               R   N=           1
  4.03761000E-01
MicOpt                                     I   N=           1
          -1
Number of residues                         I                0
Number of secondary structures             I                0
SymInf integers                            I   N=          26
           1           8           1           1           1           1
          -1          -1          -1           1          -1          -1
          -1           1          -1          -1          -1          -1
           1           1           1          -1           1           1
           1          -1
RotTr to input orientation                 R   N=          12
  0.00000000E+00  0.00000000E+00 -1.00000000E+00  0.00000000E+00  1.00000000E+00
  0.00000000E+00  1.00000000E+00  0.00000000E+00  0.00000000E+00  0.00000000E+00
  0.00000000E+00  0.00000000E+00
Number of contracted shells                I                6
Number of primitive shells                 I               13
Pure/Cartesian d shells                    I                0
Pure/Cartesian f shells                    I                0
Highest angular momentum                   I                2
Largest degree of contraction              I                6
Shell types                                I   N=           6
           0          -1          -1          -1          -1          -2
Number of primitives per shell             I   N=           6
           6           3           1           1           1           1
Shell to atom map                          I   N=           6
           1           1           1           1           1           1
Primitive exponents                        R   N=          13
  6.29348000E+03  9.49044000E+02  2.18776000E+02  6.36916000E+01  1.88282000E+01
  2.72023000E+00  3.06331000E+01  7.02614000E+00  2.11205000E+00  6.84009000E-01
  2.00878000E-01  6.39000000E-02  9.13000000E-01
Contraction coefficients                   R   N=          13
  1.96978815E-03  1.49612859E-02  7.35005308E-02  2.48936766E-01  6.02459433E-01
  2.56201759E-01  1.11906080E-01  9.21666655E-01 -2.56919183E-03  1.00000000E+00
  1.00000000E+00  1.00000000E+00  1.00000000E+00
P(S=P) Contraction coefficients            R   N=          13
  0.00000000E+00  0.00000000E+00  0.00000000E+00  0.00000000E+00  0.00000000E+00
  0.00000000E+00  3.83119186E-02  2.37403116E-01  8.17592398E-01  1.00000000E+00
  1.00000000E+00  1.00000000E+00  0.00000000E+00
Coordinates of each shell                  R   N=          18
  0.00000000E+00  0.00000000E+00  0.00000000E+00  0.00000000E+00  0.00000000E+00
  0.00000000E+00  0.00000000E+00  0.00000000E+00  0.00000000E+00  0.00000000E+00
  0.00000000E+00  0.00000000E+00  0.00000000E+00  0.00000000E+00  0.00000000E+00
  0.00000000E+00  0.00000000E+00  0.00000000E+00
Num ILSW                                   I              100
ILSW                                       I   N=         100
           1           0           0           0           2           0
           0           0           0           0        1009          -1
           5           0           0           0           0           0
           0           0           0           0           0           0
           1           0           0           0           0           0
           0           0      100000           0          -1           0
           0           0           0           0           0           0
           0           0           0           1           0           0
           0 -2000000000           1           0           0           0
           0           1           4          52           0           0
           0           0          13           0           0           0
           0           0           0           1           0           1
           0           0           0           0           0           0
           0           0           0           0           0           0
           0           0           0           0           0           0
           0           0           0           0           0           0
           0           0           0           0
Num RLSW                                   I               52
RLSW                                       R   N=          52
  7.50000000E-01  7.50000000E-01  1.00000000E+00  1.00000000E+00  2.50000000E-01
  0.00000000E+00  0.00000000E+00  1.00000000E+00  0.00000000E+00  0.00000000E+00
  0.00000000E+00  0.00000000E+00  1.00000000E+00  0.00000000E+00  0.00000000E+00
  0.00000000E+00  0.00000000E+00  1.00000000E+00  0.00000000E+00  0.00000000E+00
  0.00000000E+00  0.00000000E+00  1.00000000E+00  0.00000000E+00  0.00000000E+00
  0.00000000E+00  0.00000000E+00  1.00000000E+00  0.00000000E+00  0.00000000E+00
  0.00000000E+00  0.00000000E+00  1.00000000E+00  0.00000000E+00  0.00000000E+00
  0.00000000E+00  0.00000000E+00  0.00000000E+00  1.00000000E+00  1.00000000E+00
  0.00000000E+00  1.00000000E+00  0.00000000E+00  0.00000000E+00  0.00000000E+00
  0.00000000E+00  0.00000000E+00  0.00000000E+00  0.00000000E+00  0.00000000E+00
  0.00000000E+00  0.00000000E+00
MxBond                                     I                1
NBond                                      I   N=           1
           0
IBond                                      I   N=           1
           0
RBond                                      R   N=           1
  0.00000000E+00
Virial Ratio                               R      2.002038711416519E+00
SCF Energy                                 R     -5.453441110439294E+01
Total Energy                               R     -5.453441110439294E+01
S**2                                       R      2.014702753154914E+00
S**2 after annihilation                    R      2.000049346422454E+00
RMS Density                                R      1.439690795934394E-09
Job Status                                 I                1
Nuclear derivative order                   I                0
External E-field                           R   N=          35
  0.00000000E+00  0.00000000E+00  0.00000000E+00  0.00000000E+00  0.00000000E+00
  0.00000000E+00  0.00000000E+00  0.00000000E+00  0.00000000E+00  0.00000000E+00
  0.00000000E+00  0.00000000E+00  0.00000000E+00  0.00000000E+00  0.00000000E+00
  0.00000000E+00  0.00000000E+00  0.00000000E+00  0.00000000E+00  0.00000000E+00
  0.00000000E+00  0.00000000E+00  0.00000000E+00  0.00000000E+00  0.00000000E+00
  0.00000000E+00  0.00000000E+00  0.00000000E+00  0.00000000E+00  0.00000000E+00
  0.00000000E+00  0.00000000E+00  0.00000000E+00  0.00000000E+00  0.00000000E+00
IOpCl                                      I                1
IROHF                                      I                0
Alpha Orbital Energies                     R   N=          22
 -1.41031073E+01 -4.42385346E-01 -6.53525850E-03 -6.53525850E-03  4.81618446E-02
  2.82439974E-01  3.12627932E-01  3.12627932E-01  3.26233486E-01  1.03933772E+00
  1.03933772E+00  1.07581494E+00  1.22349502E+00  2.23470480E+00  2.23470480E+00
  2.27912500E+00  2.27912500E+00  2.29469876E+00  4.07179390E+00  4.07179390E+00
  4.12062166E+00  3.55968815E+01
Beta Orbital Energies                      R   N=          22
 -1.40643569E+01 -3.00642864E-01  9.28010516E-02  2.11689976E-01  2.11689976E-01
  3.02669089E-01  3.37505550E-01  3.71606113E-01  3.71606113E-01  1.10280222E+00
  1.13259093E+00  1.13259093E+00  1.29429847E+00  2.36359967E+00  2.36359967E+00
  2.36894132E+00  2.39047307E+00  2.39047308E+00  4.15766993E+00  4.18154397E+00
  4.18154397E+00  3.56335063E+01
Alpha MO coefficients                      R   N=         484
  5.57075080E-01  4.66528930E-01  0.00000000E+00  0.00000000E+00  0.00000000E+00
  1.28726378E-02  0.00000000E+00  0.00000000E+00  0.00000000E+00 -6.00082280E-03
  0.00000000E+00  0.00000000E+00  0.00000000E+00  2.19365316E-03  0.00000000E+00
  0.00000000E+00  0.00000000E+00 -2.83778107E-04  0.00000000E+00  0.00000000E+00
  2.57196336E-16  0.00000000E+00 -1.28196372E-01 -2.06081170E-01  0.00000000E+00
  0.00000000E+00  0.00000000E+00  5.93220100E-01  0.00000000E+00  0.00000000E+00
  0.00000000E+00  5.00101054E-01  0.00000000E+00  0.00000000E+00  0.00000000E+00
  3.67790877E-02  0.00000000E+00  0.00000000E+00  0.00000000E+00 -1.68275215E-02
  0.00000000E+00  0.00000000E+00  7.91359652E-18  0.00000000E+00  0.00000000E+00
  0.00000000E+00  2.82364896E-01  0.00000000E+00  0.00000000E+00  0.00000000E+00
  4.29438114E-01  0.00000000E+00  0.00000000E+00  0.00000000E+00  3.92591583E-01
  0.00000000E+00  0.00000000E+00  0.00000000E+00  1.78267398E-01  0.00000000E+00
  0.00000000E+00  0.00000000E+00  0.00000000E+00  0.00000000E+00  0.00000000E+00
  0.00000000E+00  0.00000000E+00  0.00000000E+00  0.00000000E+00  2.82364896E-01
  0.00000000E+00  0.00000000E+00  0.00000000E+00  4.29438114E-01  0.00000000E+00
  0.00000000E+00  0.00000000E+00  3.92591583E-01  0.00000000E+00  0.00000000E+00
  0.00000000E+00  1.78267398E-01  0.00000000E+00  0.00000000E+00  0.00000000E+00
  0.00000000E+00  0.00000000E+00  0.00000000E+00  0.00000000E+00  0.00000000E+00
  0.00000000E+00  0.00000000E+00  2.68336968E-01  0.00000000E+00  0.00000000E+00
  0.00000000E+00  4.03208581E-01  0.00000000E+00  0.00000000E+00  0.00000000E+00
  3.73254350E-01  0.00000000E+00  0.00000000E+00  0.00000000E+00  2.60282967E-01
  0.00000000E+00  0.00000000E+00  0.00000000E+00  0.00000000E+00  0.00000000E+00
  3.93674920E-02  5.98158454E-02  0.00000000E+00  0.00000000E+00  0.00000000E+00
 -9.69262099E-02  0.00000000E+00  0.00000000E+00  0.00000000E+00 -1.02343208E+00
  0.00000000E+00  0.00000000E+00  0.00000000E+00  1.57474316E+00  0.00000000E+00
  0.00000000E+00  0.00000000E+00  4.72887998E-03  0.00000000E+00  0.00000000E+00
  5.06228477E-17  0.00000000E+00  0.00000000E+00  0.00000000E+00 -1.41029737E-01
  0.00000000E+00  0.00000000E+00  0.00000000E+00 -1.24317906E-01  0.00000000E+00
  0.00000000E+00  0.00000000E+00 -5.85894426E-01  0.00000000E+00  0.00000000E+00
  0.00000000E+00  1.24650962E+00  0.00000000E+00  0.00000000E+00  0.00000000E+00
  0.00000000E+00  0.00000000E+00  0.00000000E+00  0.00000000E+00  0.00000000E+00
  0.00000000E+00  0.00000000E+00 -1.41029737E-01  0.00000000E+00  0.00000000E+00
  0.00000000E+00 -1.24317906E-01  0.00000000E+00  0.00000000E+00  0.00000000E+00
 -5.85894426E-01  0.00000000E+00  0.00000000E+00  0.00000000E+00  1.24650962E+00
  0.00000000E+00  0.00000000E+00  0.00000000E+00  0.00000000E+00  0.00000000E+00
  0.00000000E+00  0.00000000E+00  0.00000000E+00  0.00000000E+00  0.00000000E+00
 -1.58292204E-01  0.00000000E+00  0.00000000E+00  0.00000000E+00 -1.40896946E-01
  0.00000000E+00  0.00000000E+00  0.00000000E+00 -6.40141985E-01  0.00000000E+00
  0.00000000E+00  0.00000000E+00  1.24106838E+00  0.00000000E+00  0.00000000E+00
  0.00000000E+00  0.00000000E+00  0.00000000E+00  0.00000000E+00  0.00000000E+00
  0.00000000E+00 -2.59989120E-01  0.00000000E+00  0.00000000E+00  0.00000000E+00
 -8.95579375E-01  0.00000000E+00  0.00000000E+00  0.00000000E+00  1.61393608E+00
  0.00000000E+00  0.00000000E+00  0.00000000E+00 -7.09669192E-01  0.00000000E+00
  0.00000000E+00  0.00000000E+00  0.00000000E+00  0.00000000E+00  0.00000000E+00
  0.00000000E+00  0.00000000E+00 -2.59989120E-01  0.00000000E+00  0.00000000E+00
  0.00000000E+00 -8.95579375E-01  0.00000000E+00  0.00000000E+00  0.00000000E+00
  1.61393608E+00  0.00000000E+00  0.00000000E+00  0.00000000E+00 -7.09669192E-01
  0.00000000E+00  0.00000000E+00  0.00000000E+00  0.00000000E+00  0.00000000E+00
  0.00000000E+00  0.00000000E+00  0.00000000E+00  0.00000000E+00  0.00000000E+00
  0.00000000E+00 -2.63302109E-01  0.00000000E+00  0.00000000E+00  0.00000000E+00
 -9.08460303E-01  0.00000000E+00  0.00000000E+00  0.00000000E+00  1.60049936E+00
  0.00000000E+00  0.00000000E+00  0.00000000E+00 -6.94614900E-01  0.00000000E+00
  0.00000000E+00  0.00000000E+00  0.00000000E+00  0.00000000E+00  1.28095061E-01
  2.57682548E-01  0.00000000E+00  0.00000000E+00  0.00000000E+00 -1.86363364E+00
  0.00000000E+00  0.00000000E+00  0.00000000E+00  2.46427330E+00  0.00000000E+00
  0.00000000E+00  0.00000000E+00 -1.03065706E+00  0.00000000E+00  0.00000000E+00
  0.00000000E+00  5.93803955E-03  0.00000000E+00  0.00000000E+00 -1.78860047E-16
  0.00000000E+00  0.00000000E+00  0.00000000E+00  0.00000000E+00  0.00000000E+00
  0.00000000E+00  0.00000000E+00  0.00000000E+00  0.00000000E+00  0.00000000E+00
  0.00000000E+00  0.00000000E+00  0.00000000E+00  0.00000000E+00  0.00000000E+00
  0.00000000E+00  0.00000000E+00  0.00000000E+00  0.00000000E+00  0.00000000E+00
  0.00000000E+00  0.00000000E+00  1.00000000E+00  1.81156838E-16  2.52824420E-16
  0.00000000E+00  0.00000000E+00  0.00000000E+00 -1.21465122E-15  0.00000000E+00
  0.00000000E+00  0.00000000E+00  1.56705477E-15  0.00000000E+00  0.00000000E+00
  0.00000000E+00 -8.25599936E-16  0.00000000E+00  0.00000000E+00  0.00000000E+00
  2.87319291E-15  0.00000000E+00  0.00000000E+00  1.00000000E+00  0.00000000E+00
  0.00000000E+00  0.00000000E+00  0.00000000E+00  0.00000000E+00  0.00000000E+00
  0.00000000E+00  0.00000000E+00  0.00000000E+00  0.00000000E+00  0.00000000E+00
  0.00000000E+00  0.00000000E+00  0.00000000E+00  0.00000000E+00  0.00000000E+00
  0.00000000E+00  0.00000000E+00  0.00000000E+00  1.00000000E+00  0.00000000E+00
  0.00000000E+00  0.00000000E+00  0.00000000E+00  0.00000000E+00  0.00000000E+00
  0.00000000E+00  0.00000000E+00  0.00000000E+00  0.00000000E+00  0.00000000E+00
  0.00000000E+00  0.00000000E+00  0.00000000E+00  0.00000000E+00  0.00000000E+00
  0.00000000E+00  0.00000000E+00  0.00000000E+00  0.00000000E+00  0.00000000E+00
  0.00000000E+00  1.00000000E+00  0.00000000E+00  0.00000000E+00 -3.38567434E-03
 -4.68769688E-03  0.00000000E+00  0.00000000E+00  0.00000000E+00  2.14479268E-02
  0.00000000E+00  0.00000000E+00  0.00000000E+00 -1.32304694E-03  0.00000000E+00
  0.00000000E+00  0.00000000E+00 -7.28663836E-04  0.00000000E+00  0.00000000E+00
  0.00000000E+00  9.99829530E-01  0.00000000E+00  0.00000000E+00 -3.01328350E-15
  0.00000000E+00  0.00000000E+00  0.00000000E+00  0.00000000E+00 -1.29707866E+00
  0.00000000E+00  0.00000000E+00  0.00000000E+00  1.55031231E+00  0.00000000E+00
  0.00000000E+00  0.00000000E+00 -8.55890191E-01  0.00000000E+00  0.00000000E+00
  0.00000000E+00  2.94572480E-01  0.00000000E+00  0.00000000E+00  0.00000000E+00
  0.00000000E+00  0.00000000E+00  0.00000000E+00  0.00000000E+00  0.00000000E+00
 -1.29707866E+00  0.00000000E+00  0.00000000E+00  0.00000000E+00  1.55031231E+00
  0.00000000E+00  0.00000000E+00  0.00000000E+00 -8.55890191E-01  0.00000000E+00
  0.00000000E+00  0.00000000E+00  2.94572480E-01  0.00000000E+00  0.00000000E+00
  0.00000000E+00  0.00000000E+00  0.00000000E+00  0.00000000E+00  0.00000000E+00
  0.00000000E+00  0.00000000E+00  0.00000000E+00  0.00000000E+00 -1.29739645E+00
  0.00000000E+00  0.00000000E+00  0.00000000E+00  1.54844228E+00  0.00000000E+00
  0.00000000E+00  0.00000000E+00 -8.50905000E-01  0.00000000E+00  0.00000000E+00
  0.00000000E+00  2.92371338E-01  0.00000000E+00  0.00000000E+00  0.00000000E+00
  0.00000000E+00  0.00000000E+00 -2.14449944E+00  2.25378551E+00  0.00000000E+00
  0.00000000E+00  0.00000000E+00 -3.24679825E-01  0.00000000E+00  0.00000000E+00
  0.00000000E+00  2.76804959E-01  0.00000000E+00  0.00000000E+00  0.00000000E+00
 -1.04373538E-01  0.00000000E+00  0.00000000E+00  0.00000000E+00 -2.04783454E-04
  0.00000000E+00  0.00000000E+00  7.50389938E-19  0.00000000E+00
Beta MO coefficients                       R   N=         484
  5.58448441E-01  4.66192113E-01  0.00000000E+00  0.00000000E+00  0.00000000E+00
  9.76345061E-03  0.00000000E+00  0.00000000E+00  0.00000000E+00 -4.62413639E-03
  0.00000000E+00  0.00000000E+00  0.00000000E+00  1.65676480E-03  0.00000000E+00
  0.00000000E+00  0.00000000E+00  3.49337158E-04  0.00000000E+00  0.00000000E+00
  4.54054068E-16  0.00000000E+00 -1.23754096E-01 -1.96613508E-01  0.00000000E+00
  0.00000000E+00  0.00000000E+00  5.50780232E-01  0.00000000E+00  0.00000000E+00
  0.00000000E+00  5.09747787E-01  0.00000000E+00  0.00000000E+00  0.00000000E+00
  7.76000071E-02  0.00000000E+00  0.00000000E+00  0.00000000E+00  1.10619013E-02
  0.00000000E+00  0.00000000E+00  7.01400368E-17  0.00000000E+00  0.00000000E+00
  0.00000000E+00  0.00000000E+00  0.00000000E+00  2.44374761E-01  0.00000000E+00
  0.00000000E+00  0.00000000E+00  3.67252732E-01  0.00000000E+00  0.00000000E+00
  0.00000000E+00  3.34621128E-01  0.00000000E+00  0.00000000E+00  0.00000000E+00
  3.78050216E-01  0.00000000E+00  0.00000000E+00  0.00000000E+00  0.00000000E+00
  0.00000000E+00  0.00000000E+00  0.00000000E+00  1.88406057E-01  0.00000000E+00
  0.00000000E+00  0.00000000E+00  3.02515582E-01  0.00000000E+00  0.00000000E+00
  0.00000000E+00  2.05765852E-01  0.00000000E+00  0.00000000E+00  0.00000000E+00
  6.23119374E-01  0.00000000E+00  0.00000000E+00  0.00000000E+00  0.00000000E+00
  0.00000000E+00  0.00000000E+00  0.00000000E+00  0.00000000E+00  0.00000000E+00
  0.00000000E+00  1.88406057E-01  0.00000000E+00  0.00000000E+00  0.00000000E+00
  3.02515582E-01  0.00000000E+00  0.00000000E+00  0.00000000E+00  2.05765852E-01
  0.00000000E+00  0.00000000E+00  0.00000000E+00  6.23119374E-01  0.00000000E+00
  0.00000000E+00  0.00000000E+00  0.00000000E+00  0.00000000E+00  0.00000000E+00
  4.15611546E-02  6.16951611E-02  0.00000000E+00  0.00000000E+00  0.00000000E+00
 -7.95642409E-02  0.00000000E+00  0.00000000E+00  0.00000000E+00 -1.09525165E+00
  0.00000000E+00  0.00000000E+00  0.00000000E+00  1.59408112E+00  0.00000000E+00
  0.00000000E+00  0.00000000E+00 -1.84336741E-03  0.00000000E+00  0.00000000E+00
  8.34889506E-17  0.00000000E+00  0.00000000E+00  0.00000000E+00  0.00000000E+00
  0.00000000E+00 -1.80758937E-01  0.00000000E+00  0.00000000E+00  0.00000000E+00
 -1.66666550E-01  0.00000000E+00  0.00000000E+00  0.00000000E+00 -7.06109138E-01
  0.00000000E+00  0.00000000E+00  0.00000000E+00  1.21877958E+00  0.00000000E+00
  0.00000000E+00  0.00000000E+00  0.00000000E+00  0.00000000E+00  0.00000000E+00
  0.00000000E+00 -2.18842122E-01  0.00000000E+00  0.00000000E+00  0.00000000E+00
 -2.20337865E-01  0.00000000E+00  0.00000000E+00  0.00000000E+00 -8.07034577E-01
  0.00000000E+00  0.00000000E+00  0.00000000E+00  1.12391174E+00  0.00000000E+00
  0.00000000E+00  0.00000000E+00  0.00000000E+00  0.00000000E+00  0.00000000E+00
  0.00000000E+00  0.00000000E+00  0.00000000E+00  0.00000000E+00 -2.18842122E-01
  0.00000000E+00  0.00000000E+00  0.00000000E+00 -2.20337865E-01  0.00000000E+00
  0.00000000E+00  0.00000000E+00 -8.07034577E-01  0.00000000E+00  0.00000000E+00
  0.00000000E+00  1.12391174E+00  0.00000000E+00  0.00000000E+00  0.00000000E+00
  0.00000000E+00  0.00000000E+00  0.00000000E+00  0.00000000E+00  0.00000000E+00
  0.00000000E+00  0.00000000E+00 -2.66732600E-01  0.00000000E+00  0.00000000E+00
  0.00000000E+00 -9.25353541E-01  0.00000000E+00  0.00000000E+00  0.00000000E+00
  1.58434799E+00  0.00000000E+00  0.00000000E+00  0.00000000E+00 -6.80779671E-01
  0.00000000E+00  0.00000000E+00  0.00000000E+00  0.00000000E+00  0.00000000E+00
  0.00000000E+00  0.00000000E+00  0.00000000E+00 -2.71804598E-01  0.00000000E+00
  0.00000000E+00  0.00000000E+00 -9.47224553E-01  0.00000000E+00  0.00000000E+00
  0.00000000E+00  1.56058049E+00  0.00000000E+00  0.00000000E+00  0.00000000E+00
 -6.64375247E-01  0.00000000E+00  0.00000000E+00  0.00000000E+00  0.00000000E+00
  0.00000000E+00  0.00000000E+00  0.00000000E+00  0.00000000E+00 -2.71804598E-01
  0.00000000E+00  0.00000000E+00  0.00000000E+00 -9.47224553E-01  0.00000000E+00
  0.00000000E+00  0.00000000E+00  1.56058049E+00  0.00000000E+00  0.00000000E+00
  0.00000000E+00 -6.64375247E-01  0.00000000E+00  0.00000000E+00  0.00000000E+00
  0.00000000E+00  0.00000000E+00  0.00000000E+00  0.00000000E+00  1.31343100E-01
  2.62185948E-01  0.00000000E+00  0.00000000E+00  0.00000000E+00 -1.87738535E+00
  0.00000000E+00  0.00000000E+00  0.00000000E+00  2.43117607E+00  0.00000000E+00
  0.00000000E+00  0.00000000E+00 -9.98141837E-01  0.00000000E+00  0.00000000E+00
  0.00000000E+00 -6.20703567E-03  0.00000000E+00  0.00000000E+00  1.06406452E-16
  0.00000000E+00  0.00000000E+00  0.00000000E+00  0.00000000E+00  0.00000000E+00
  0.00000000E+00  0.00000000E+00  0.00000000E+00  0.00000000E+00  0.00000000E+00
  0.00000000E+00  0.00000000E+00  0.00000000E+00  0.00000000E+00  0.00000000E+00
  0.00000000E+00  0.00000000E+00  0.00000000E+00  0.00000000E+00  1.00000000E+00
  0.00000000E+00  0.00000000E+00  0.00000000E+00  0.00000000E+00  0.00000000E+00
  0.00000000E+00  0.00000000E+00  0.00000000E+00  0.00000000E+00  0.00000000E+00
  0.00000000E+00  0.00000000E+00  0.00000000E+00  0.00000000E+00  0.00000000E+00
  0.00000000E+00  0.00000000E+00  0.00000000E+00  0.00000000E+00  0.00000000E+00
  0.00000000E+00  0.00000000E+00  1.00000000E+00  0.00000000E+00  0.00000000E+00
  2.23647326E-03  3.57417520E-03  0.00000000E+00  0.00000000E+00  0.00000000E+00
 -1.78713474E-02  0.00000000E+00  0.00000000E+00  0.00000000E+00  7.41286033E-03
  0.00000000E+00  0.00000000E+00  0.00000000E+00 -4.10804070E-03  0.00000000E+00
  0.00000000E+00  0.00000000E+00  9.99917787E-01  0.00000000E+00  0.00000000E+00
 -5.89224618E-14  0.00000000E+00  1.33559375E-16  1.52570692E-16  0.00000000E+00
  0.00000000E+00  0.00000000E+00 -4.32171177E-16  0.00000000E+00  0.00000000E+00
  0.00000000E+00  2.15454142E-16  0.00000000E+00  0.00000000E+00  0.00000000E+00
 -1.02760423E-15  0.00000000E+00  0.00000000E+00  0.00000000E+00  5.94686593E-14
  0.00000000E+00  0.00000000E+00  1.00000000E+00  0.00000000E+00  0.00000000E+00
  0.00000000E+00  0.00000000E+00  0.00000000E+00  0.00000000E+00  0.00000000E+00
  0.00000000E+00  0.00000000E+00  0.00000000E+00  0.00000000E+00  0.00000000E+00
  0.00000000E+00  0.00000000E+00  0.00000000E+00  0.00000000E+00  0.00000000E+00
  0.00000000E+00  0.00000000E+00  0.00000000E+00  0.00000000E+00  0.00000000E+00
  1.00000000E+00  0.00000000E+00  0.00000000E+00  0.00000000E+00  0.00000000E+00
 -1.29849436E+00  0.00000000E+00  0.00000000E+00  0.00000000E+00  1.54482078E+00
  0.00000000E+00  0.00000000E+00  0.00000000E+00 -8.44995937E-01  0.00000000E+00
  0.00000000E+00  0.00000000E+00  2.90107257E-01  0.00000000E+00  0.00000000E+00
  0.00000000E+00  0.00000000E+00  0.00000000E+00  0.00000000E+00  0.00000000E+00
 -1.30090747E+00  0.00000000E+00  0.00000000E+00  0.00000000E+00  1.53886449E+00
  0.00000000E+00  0.00000000E+00  0.00000000E+00 -8.40048952E-01  0.00000000E+00
  0.00000000E+00  0.00000000E+00  2.88303638E-01  0.00000000E+00  0.00000000E+00
  0.00000000E+00  0.00000000E+00  0.00000000E+00  0.00000000E+00  0.00000000E+00
  0.00000000E+00  0.00000000E+00  0.00000000E+00 -1.30090747E+00  0.00000000E+00
  0.00000000E+00  0.00000000E+00  1.53886449E+00  0.00000000E+00  0.00000000E+00
  0.00000000E+00 -8.40048952E-01  0.00000000E+00  0.00000000E+00  0.00000000E+00
  2.88303638E-01  0.00000000E+00  0.00000000E+00  0.00000000E+00  0.00000000E+00
  0.00000000E+00  0.00000000E+00 -2.14416681E+00  2.25413299E+00  0.00000000E+00
  0.00000000E+00  0.00000000E+00 -3.25266078E-01  0.00000000E+00  0.00000000E+00
  0.00000000E+00  2.76953967E-01  0.00000000E+00  0.00000000E+00  0.00000000E+00
 -1.04397024E-01  0.00000000E+00  0.00000000E+00  0.00000000E+00  7.95445599E-05
  0.00000000E+00  0.00000000E+00  1.74673979E-18  0.00000000E+00
Orthonormal basis                          R   N=         484
  2.37258796E-01  2.48792276E-01  0.00000000E+00  0.00000000E+00  0.00000000E+00
  3.14136421E-01  0.00000000E+00  0.00000000E+00  0.00000000E+00  3.10357360E-01
  0.00000000E+00  0.00000000E+00  0.00000000E+00  2.47131997E-01  0.00000000E+00
  0.00000000E+00  0.00000000E+00 -2.08603220E-17  0.00000000E+00  0.00000000E+00
  0.00000000E+00  0.00000000E+00  4.42543018E-01  4.32319358E-01  0.00000000E+00
  0.00000000E+00  0.00000000E+00 -9.06604449E-02  0.00000000E+00  0.00000000E+00
  0.00000000E+00 -3.14228116E-01  0.00000000E+00  0.00000000E+00  0.00000000E+00
 -3.50226540E-01  0.00000000E+00  0.00000000E+00  0.00000000E+00  1.59340170E-17
  0.00000000E+00  0.00000000E+00  0.00000000E+00  0.00000000E+00  0.00000000E+00
  0.00000000E+00  0.00000000E+00  0.00000000E+00  0.00000000E+00  0.00000000E+00
  0.00000000E+00  0.00000000E+00  0.00000000E+00  0.00000000E+00  0.00000000E+00
  0.00000000E+00  0.00000000E+00  0.00000000E+00  0.00000000E+00  0.00000000E+00
  0.00000000E+00  0.00000000E+00  0.00000000E+00  0.00000000E+00  1.00000000E+00
  0.00000000E+00  3.26663306E-17  2.90298169E-17  0.00000000E+00  0.00000000E+00
  0.00000000E+00 -1.18639685E-16  0.00000000E+00  0.00000000E+00  0.00000000E+00
  5.66571983E-17  0.00000000E+00  0.00000000E+00  0.00000000E+00  1.00249567E-16
  0.00000000E+00  0.00000000E+00  0.00000000E+00  1.00000000E+00  0.00000000E+00
  0.00000000E+00  0.00000000E+00  0.00000000E+00 -3.08427338E-01 -1.57173734E-01
  0.00000000E+00  0.00000000E+00  0.00000000E+00  9.94219717E-01  0.00000000E+00
  0.00000000E+00  0.00000000E+00  8.82862496E-02  0.00000000E+00  0.00000000E+00
  0.00000000E+00 -9.20318709E-01  0.00000000E+00  0.00000000E+00  0.00000000E+00
  2.17796360E-16  0.00000000E+00  0.00000000E+00  0.00000000E+00  0.00000000E+00
  1.96171304E+00 -1.92434664E+00  0.00000000E+00  0.00000000E+00  0.00000000E+00
 -3.88719623E-01  0.00000000E+00  0.00000000E+00  0.00000000E+00  9.59313419E-01
  0.00000000E+00  0.00000000E+00  0.00000000E+00 -6.56693937E-01  0.00000000E+00
  0.00000000E+00  0.00000000E+00 -4.85145826E-17  0.00000000E+00  0.00000000E+00
  0.00000000E+00  0.00000000E+00 -8.64888929E-01  1.19710353E+00  0.00000000E+00
  0.00000000E+00  0.00000000E+00 -1.64134123E+00  0.00000000E+00  0.00000000E+00
  0.00000000E+00  2.51469247E+00  0.00000000E+00  0.00000000E+00  0.00000000E+00
 -1.44649769E+00  0.00000000E+00  0.00000000E+00  0.00000000E+00 -1.97272031E-16
  0.00000000E+00  0.00000000E+00  0.00000000E+00  0.00000000E+00  0.00000000E+00
  0.00000000E+00  0.00000000E+00  0.00000000E+00  0.00000000E+00  0.00000000E+00
  0.00000000E+00  0.00000000E+00  0.00000000E+00  0.00000000E+00  0.00000000E+00
  0.00000000E+00  0.00000000E+00  0.00000000E+00  0.00000000E+00  0.00000000E+00
  0.00000000E+00  0.00000000E+00  0.00000000E+00  0.00000000E+00  0.00000000E+00
  1.00000000E+00  0.00000000E+00  0.00000000E+00  0.00000000E+00  0.00000000E+00
  0.00000000E+00  0.00000000E+00  0.00000000E+00  0.00000000E+00  0.00000000E+00
  0.00000000E+00  0.00000000E+00  0.00000000E+00  0.00000000E+00  0.00000000E+00
  0.00000000E+00  0.00000000E+00  0.00000000E+00  0.00000000E+00  1.00000000E+00
  0.00000000E+00  0.00000000E+00  0.00000000E+00  0.00000000E+00  0.00000000E+00
  0.00000000E+00  0.00000000E+00  0.00000000E+00  0.00000000E+00  0.00000000E+00
  0.00000000E+00  0.00000000E+00  0.00000000E+00  0.00000000E+00  0.00000000E+00
  0.00000000E+00  0.00000000E+00  0.00000000E+00  0.00000000E+00  0.00000000E+00
  0.00000000E+00  0.00000000E+00  1.00000000E+00  0.00000000E+00  0.00000000E+00
  0.00000000E+00  0.00000000E+00  0.00000000E+00  0.00000000E+00  2.60374247E-01
  0.00000000E+00  0.00000000E+00  0.00000000E+00  3.75569254E-01  0.00000000E+00
  0.00000000E+00  0.00000000E+00  3.86371087E-01  0.00000000E+00  0.00000000E+00
  0.00000000E+00  2.87220663E-01  0.00000000E+00  0.00000000E+00  0.00000000E+00
  0.00000000E+00  0.00000000E+00  0.00000000E+00  0.00000000E+00  0.00000000E+00
  0.00000000E+00  6.01123738E-01  0.00000000E+00  0.00000000E+00  0.00000000E+00
  3.13723242E-01  0.00000000E+00  0.00000000E+00  0.00000000E+00 -2.96391563E-01