fubar                                                                   
SP        UPBE1PBE                                                    6-311+G(d,p)        
Number of atoms                            I                1
Info1-9                                    I   N=           9
          11          10           0           0           0         110
           1          18       -1302
Full Title                                 C   N=           1
fubar       
Route                                      C   N=           3
#PBE1PBE/6-311+G(d,p) scf=tight     
Charge                                     I                3
Multiplicity                               I                3
Number of electrons                        I               14
Number of alpha electrons                  I                8
Number of beta electrons                   I                6
Number of basis functions                  I               30
Number of independent functions            I               30
Number of point charges in /Mol/           I                0
Number of translation vectors              I                0
Atomic numbers                             I   N=           1
          17
Nuclear charges                            R   N=           1
  1.70000000E+01
Current cartesian coordinates              R   N=           3
  0.00000000E+00  0.00000000E+00  0.00000000E+00
Number of symbols in /Mol/                 I                0
Int Atom Types                             I   N=           1
           0
Force Field                                I                0
Atom Types                                 C   N=           1
            
MM charges                                 R   N=           1
  0.00000000E+00
Integer atomic weights                     I   N=           1
          35
Real atomic weights                        R   N=           1
  3.49688527E+01
Atom fragment info                         I   N=           1
           0
Atom residue num                           I   N=           1
           0
Nuclear spins                              I   N=           1
           3
Nuclear ZEff                               R   N=           1
 -1.42400000E+01
Nuclear ZNuc                               R   N=           1
  1.70000000E+01
Nuclear QMom                               R   N=           1
 -8.16500000E+00
Nuclear GFac                               R   N=           1
  8.21874000E-01
MicOpt                                     I   N=           1
          -1
Number of residues                         I                0
Number of secondary structures             I                0
SymInf integers                            I   N=          26
           1           8           1           1           1           1
          -1          -1          -1           1          -1          -1
          -1           1          -1          -1          -1          -1
           1           1           1          -1           1           1
           1          -1
RotTr to input orientation                 R   N=          12
  0.00000000E+00  0.00000000E+00 -1.00000000E+00  0.00000000E+00  1.00000000E+00
  0.00000000E+00  1.00000000E+00  0.00000000E+00  0.00000000E+00  0.00000000E+00
  0.00000000E+00  0.00000000E+00
Number of contracted shells                I               13
Number of primitive shells                 I               25
Pure/Cartesian d shells                    I                0
Pure/Cartesian f shells                    I                0
Highest angular momentum                   I                2
Largest degree of contraction              I                6
Shell types                                I   N=          13
           0           0           0           0           0           0
          -1           1           1           1           1           1
          -2
Number of primitives per shell             I   N=          13
           6           3           1           1           1           1
           1           5           2           1           1           1
           1
Shell to atom map                          I   N=          13
           1           1           1           1           1           1
           1           1           1           1           1           1
           1
Primitive exponents                        R   N=          25
  1.05819000E+05  1.58720000E+04  3.61965000E+03  1.03080000E+03  3.39908000E+02
  1.24538000E+02  1.24538000E+02  4.95135000E+01  2.08056000E+01  6.58346000E+00
  2.56468000E+00  5.59763000E-01  1.83273000E-01  4.83000000E-02  5.89776000E+02
  1.39849000E+02  4.51413000E+01  1.68733000E+01  2.77152000E+00  6.74110000E+00
  2.77152000E+00  1.02387000E+00  3.81368000E-01  1.09437000E-01  7.50000000E-01
Contraction coefficients                   R   N=          25
  7.38000247E-04  5.71800191E-03  2.94950099E-02  1.17286039E-01  3.62949121E-01
  5.84149195E-01  1.34176973E-01  6.24249876E-01  2.91755942E-01  1.00000000E+00
  1.00000000E+00  1.00000000E+00  1.00000000E+00  1.00000000E+00  3.66556935E-03
  2.83679194E-02  1.24756603E-01  3.39654631E-01  7.47585963E-01 -1.57224381E+00
  9.92388882E-01  1.00000000E+00  1.00000000E+00  1.00000000E+00  1.00000000E+00
P(S=P) Contraction coefficients            R   N=          25
  0.00000000E+00  0.00000000E+00  0.00000000E+00  0.00000000E+00  0.00000000E+00
  0.00000000E+00  0.00000000E+00  0.00000000E+00  0.00000000E+00  0.00000000E+00
  0.00000000E+00  0.00000000E+00  0.00000000E+00  1.00000000E+00  0.00000000E+00
  0.00000000E+00  0.00000000E+00  0.00000000E+00  0.00000000E+00  0.00000000E+00
  0.00000000E+00  0.00000000E+00  0.00000000E+00  0.00000000E+00  0.00000000E+00
Coordinates of each shell                  R   N=          39
  0.00000000E+00  0.00000000E+00  0.00000000E+00  0.00000000E+00  0.00000000E+00
  0.00000000E+00  0.00000000E+00  0.00000000E+00  0.00000000E+00  0.00000000E+00
  0.00000000E+00  0.00000000E+00  0.00000000E+00  0.00000000E+00  0.00000000E+00
  0.00000000E+00  0.00000000E+00  0.00000000E+00  0.00000000E+00  0.00000000E+00
  0.00000000E+00  0.00000000E+00  0.00000000E+00  0.00000000E+00  0.00000000E+00
  0.00000000E+00  0.00000000E+00  0.00000000E+00  0.00000000E+00  0.00000000E+00
  0.00000000E+00  0.00000000E+00  0.00000000E+00  0.00000000E+00  0.00000000E+00
  0.00000000E+00  0.00000000E+00  0.00000000E+00  0.00000000E+00
Num ILSW                                   I              100
ILSW                                       I   N=         100
           1           0           0           0           2           0
           0           0           0           0        1009          -1
           5           0           0           0           0           0
           0           0           0           0           0           0
           1           0           0           0           0           0
           0           0      100000           0          -1           0
           0           0           0           0           0           0
           0           0           0           1           0           0
           0 -2000000000           1           0           0           0
           0           1           4          52           0           0
           0           0          13           0           0           0
           0           0           0           1           0           1
           0           0           0           0           0           0
           0           0           0           0           0           0
           0           0           0           0           0           0
           0           0           0           0           0           0
           0           0           0           0
Num RLSW                                   I               52
RLSW                                       R   N=          52
  7.50000000E-01  7.50000000E-01  1.00000000E+00  1.00000000E+00  2.50000000E-01
  0.00000000E+00  0.00000000E+00  1.00000000E+00  0.00000000E+00  0.00000000E+00
  0.00000000E+00  0.00000000E+00  1.00000000E+00  0.00000000E+00  0.00000000E+00
  0.00000000E+00  0.00000000E+00  1.00000000E+00  0.00000000E+00  0.00000000E+00
  0.00000000E+00  0.00000000E+00  1.00000000E+00  0.00000000E+00  0.00000000E+00
  0.00000000E+00  0.00000000E+00  1.00000000E+00  0.00000000E+00  0.00000000E+00
  0.00000000E+00  0.00000000E+00  1.00000000E+00  0.00000000E+00  0.00000000E+00
  0.00000000E+00  0.00000000E+00  0.00000000E+00  1.00000000E+00  1.00000000E+00
  0.00000000E+00  1.00000000E+00  0.00000000E+00  0.00000000E+00  0.00000000E+00
  0.00000000E+00  0.00000000E+00  0.00000000E+00  0.00000000E+00  0.00000000E+00
  0.00000000E+00  0.00000000E+00
MxBond                                     I                1
NBond                                      I   N=           1
           0
IBond                                      I   N=           1
           0
RBond                                      R   N=           1
  0.00000000E+00
Virial Ratio                               R      2.001697005267202E+00
SCF Energy                                 R     -4.571884283306580E+02
Total Energy                               R     -4.571884283306580E+02
S**2                                       R      2.003054974366364E+00
S**2 after annihilation                    R      2.000000006711001E+00
RMS Density                                R      6.133412574312542E-10
Job Status                                 I                1
Nuclear derivative order                   I                0
External E-field                           R   N=          35
  0.00000000E+00  0.00000000E+00  0.00000000E+00  0.00000000E+00  0.00000000E+00
  0.00000000E+00  0.00000000E+00  0.00000000E+00  0.00000000E+00  0.00000000E+00
  0.00000000E+00  0.00000000E+00  0.00000000E+00  0.00000000E+00  0.00000000E+00
  0.00000000E+00  0.00000000E+00  0.00000000E+00  0.00000000E+00  0.00000000E+00
  0.00000000E+00  0.00000000E+00  0.00000000E+00  0.00000000E+00  0.00000000E+00
  0.00000000E+00  0.00000000E+00  0.00000000E+00  0.00000000E+00  0.00000000E+00
  0.00000000E+00  0.00000000E+00  0.00000000E+00  0.00000000E+00  0.00000000E+00
IOpCl                                      I                1
IROHF                                      I                0
Alpha Orbital Energies                     R   N=          30
 -1.03488377E+02 -1.12363796E+01 -8.97981161E+00 -8.97349383E+00 -8.97349383E+00
 -2.29076485E+00 -1.76889674E+00 -1.76889674E+00 -1.62611292E+00 -7.15402868E-01
 -6.21987029E-01 -6.21987029E-01 -6.11402824E-01 -6.11402824E-01 -5.95018644E-01
 -5.95018644E-01 -5.94086467E-01 -5.93007166E-01 -2.85540630E-01 -2.85227284E-01
 -2.85227284E-01 -2.16614356E-01  9.35760837E-01  9.35760837E-01  9.41837572E-01
  7.90501208E+00  2.42129161E+01  2.42337579E+01  2.42337579E+01  2.13935684E+02
Beta Orbital Energies                      R   N=          30
 -1.03468712E+02 -1.12175137E+01 -8.96942109E+00 -8.93461651E+00 -8.93461651E+00
 -2.14455155E+00 -1.57626216E+00 -1.50214224E+00 -1.50214224E+00 -6.84025708E-01
 -5.76720906E-01 -5.58175319E-01 -5.58175319E-01 -5.24152153E-01 -5.07247472E-01
 -5.07247472E-01 -4.49627671E-01 -4.49627671E-01 -2.78070265E-01 -2.66666439E-01
 -2.66666439E-01 -1.81628924E-01  9.67193866E-01  1.01485099E+00  1.01485099E+00
  7.94546678E+00  2.42283742E+01  2.42841441E+01  2.42841441E+01  2.13952946E+02
Alpha MO coefficients                      R   N=         900
  4.11760338E-01  6.54020039E-01  1.46749483E-02 -3.61232389E-03  1.17825503E-03
 -6.13161729E-04  1.69439898E-04  0.00000000E+00  0.00000000E+00  0.00000000E+00
  0.00000000E+00  0.00000000E+00  0.00000000E+00  0.00000000E+00  0.00000000E+00
  0.00000000E+00  0.00000000E+00  0.00000000E+00  0.00000000E+00  0.00000000E+00
  0.00000000E+00  0.00000000E+00  0.00000000E+00  0.00000000E+00  0.00000000E+00
 -3.66530891E-06  0.00000000E+00  0.00000000E+00 -6.34850127E-06  0.00000000E+00
 -1.22141900E-01 -3.28622279E-01  5.04039974E-01  6.07929180E-01  5.14089759E-02
 -1.52555838E-02  3.72516484E-03  0.00000000E+00  0.00000000E+00  0.00000000E+00
  0.00000000E+00  0.00000000E+00  0.00000000E+00  0.00000000E+00  0.00000000E+00
  0.00000000E+00  0.00000000E+00  0.00000000E+00  0.00000000E+00  0.00000000E+00
  0.00000000E+00  0.00000000E+00  0.00000000E+00  0.00000000E+00  0.00000000E+00
 -2.09711300E-05  0.00000000E+00  0.00000000E+00 -3.63230627E-05  0.00000000E+00
  0.00000000E+00  0.00000000E+00  0.00000000E+00  0.00000000E+00  0.00000000E+00
  0.00000000E+00  0.00000000E+00  0.00000000E+00 -5.40135928E-05  0.00000000E+00
  0.00000000E+00  8.04397925E-01  0.00000000E+00  0.00000000E+00 -2.74631587E-01
  0.00000000E+00  0.00000000E+00  5.09458261E-02  0.00000000E+00  0.00000000E+00
 -1.58582340E-03  0.00000000E+00  0.00000000E+00  2.30237709E-04  0.00000000E+00
  0.00000000E+00  0.00000000E+00  0.00000000E+00  0.00000000E+00  0.00000000E+00
  0.00000000E+00  0.00000000E+00  0.00000000E+00  0.00000000E+00  0.00000000E+00
  0.00000000E+00  0.00000000E+00  3.23826754E-04  0.00000000E+00  0.00000000E+00
  8.05149186E-01  0.00000000E+00  0.00000000E+00 -2.75096769E-01  0.00000000E+00
  0.00000000E+00  4.82003201E-02  0.00000000E+00  0.00000000E+00  4.65979860E-05
  0.00000000E+00  0.00000000E+00 -5.99455061E-04  0.00000000E+00  0.00000000E+00
  0.00000000E+00  0.00000000E+00  0.00000000E+00  0.00000000E+00  0.00000000E+00
  0.00000000E+00  0.00000000E+00  0.00000000E+00  0.00000000E+00  0.00000000E+00
  0.00000000E+00  0.00000000E+00  0.00000000E+00  0.00000000E+00  3.23826754E-04
  0.00000000E+00  0.00000000E+00  8.05149186E-01  0.00000000E+00  0.00000000E+00
 -2.75096769E-01  0.00000000E+00  0.00000000E+00  4.82003201E-02  0.00000000E+00
  0.00000000E+00  4.65979860E-05  0.00000000E+00  0.00000000E+00 -5.99455061E-04
  0.00000000E+00  0.00000000E+00  0.00000000E+00  0.00000000E+00  0.00000000E+00
  4.33184185E-02  1.24007464E-01 -2.50645006E-01 -4.94698723E-01  9.26411894E-01
  3.49370188E-01 -3.48135133E-02  0.00000000E+00  0.00000000E+00  0.00000000E+00
  0.00000000E+00  0.00000000E+00  0.00000000E+00  0.00000000E+00  0.00000000E+00
  0.00000000E+00  0.00000000E+00  0.00000000E+00  0.00000000E+00  0.00000000E+00
  0.00000000E+00  0.00000000E+00  0.00000000E+00  0.00000000E+00  0.00000000E+00
  7.73562095E-03  0.00000000E+00  0.00000000E+00  1.33984885E-02  0.00000000E+00
  0.00000000E+00  0.00000000E+00  0.00000000E+00  0.00000000E+00  0.00000000E+00
  0.00000000E+00  0.00000000E+00 -1.18723279E-02  0.00000000E+00  0.00000000E+00
 -2.90794630E-01  0.00000000E+00  0.00000000E+00  1.05745684E-01  0.00000000E+00
  0.00000000E+00  4.08032768E-01  0.00000000E+00  0.00000000E+00  6.70975127E-01
  0.00000000E+00  0.00000000E+00  6.89127508E-02  0.00000000E+00  0.00000000E+00
  0.00000000E+00  0.00000000E+00  0.00000000E+00  0.00000000E+00  0.00000000E+00
  0.00000000E+00  0.00000000E+00  0.00000000E+00  0.00000000E+00  0.00000000E+00
  0.00000000E+00  0.00000000E+00  0.00000000E+00  0.00000000E+00 -1.18723279E-02
  0.00000000E+00  0.00000000E+00 -2.90794630E-01  0.00000000E+00  0.00000000E+00
  1.05745684E-01  0.00000000E+00  0.00000000E+00  4.08032768E-01  0.00000000E+00
  0.00000000E+00  6.70975127E-01  0.00000000E+00  0.00000000E+00  6.89127508E-02
  0.00000000E+00  0.00000000E+00  0.00000000E+00  0.00000000E+00  0.00000000E+00
  0.00000000E+00  0.00000000E+00  0.00000000E+00  0.00000000E+00  0.00000000E+00
  0.00000000E+00  0.00000000E+00  0.00000000E+00 -1.78480386E-02  0.00000000E+00
  0.00000000E+00 -2.84557645E-01  0.00000000E+00  0.00000000E+00  1.04432417E-01
  0.00000000E+00  0.00000000E+00  3.87685743E-01  0.00000000E+00  0.00000000E+00
  6.75475196E-01  0.00000000E+00  0.00000000E+00  9.10624618E-02  0.00000000E+00
  0.00000000E+00  0.00000000E+00  0.00000000E+00  0.00000000E+00  0.00000000E+00
  2.06741997E-02  5.88798584E-02 -1.16418983E-01 -3.10601737E-01  1.04122443E+00
 -4.12861795E-01 -8.92965463E-01  0.00000000E+00  0.00000000E+00  0.00000000E+00
  0.00000000E+00  0.00000000E+00  0.00000000E+00  0.00000000E+00  0.00000000E+00
  0.00000000E+00  0.00000000E+00  0.00000000E+00  0.00000000E+00  0.00000000E+00
  0.00000000E+00  0.00000000E+00  0.00000000E+00  0.00000000E+00  0.00000000E+00
  7.03626832E-03  0.00000000E+00  0.00000000E+00  1.21871742E-02  0.00000000E+00
  0.00000000E+00  0.00000000E+00  0.00000000E+00  0.00000000E+00  0.00000000E+00
  0.00000000E+00  0.00000000E+00  0.00000000E+00  0.00000000E+00  0.00000000E+00
  0.00000000E+00  0.00000000E+00  0.00000000E+00  0.00000000E+00  0.00000000E+00
  0.00000000E+00  0.00000000E+00  0.00000000E+00  0.00000000E+00  0.00000000E+00
  0.00000000E+00  0.00000000E+00  0.00000000E+00  0.00000000E+00  0.00000000E+00
  0.00000000E+00  1.00000000E+00  0.00000000E+00  0.00000000E+00  0.00000000E+00
  2.66980778E-16  6.47710831E-16 -4.99660884E-16 -5.80258467E-15  1.52186190E-14
 -9.73637292E-15 -3.31415381E-15  0.00000000E+00  0.00000000E+00  0.00000000E+00
  0.00000000E+00  0.00000000E+00  0.00000000E+00  0.00000000E+00  0.00000000E+00
  0.00000000E+00  0.00000000E+00  0.00000000E+00  0.00000000E+00  0.00000000E+00
  0.00000000E+00  0.00000000E+00  0.00000000E+00  0.00000000E+00  0.00000000E+00
  8.66025404E-01  0.00000000E+00  0.00000000E+00 -5.00000000E-01  0.00000000E+00
  0.00000000E+00  0.00000000E+00  0.00000000E+00  0.00000000E+00  0.00000000E+00
  0.00000000E+00  0.00000000E+00  0.00000000E+00  0.00000000E+00  0.00000000E+00
  0.00000000E+00  0.00000000E+00  0.00000000E+00  0.00000000E+00  0.00000000E+00
  0.00000000E+00  0.00000000E+00  0.00000000E+00  0.00000000E+00  0.00000000E+00
  0.00000000E+00  0.00000000E+00  0.00000000E+00  0.00000000E+00  0.00000000E+00
  0.00000000E+00  0.00000000E+00  0.00000000E+00  0.00000000E+00  1.00000000E+00
  0.00000000E+00  0.00000000E+00  0.00000000E+00  0.00000000E+00  0.00000000E+00
  0.00000000E+00  0.00000000E+00  0.00000000E+00  0.00000000E+00  0.00000000E+00
  0.00000000E+00  0.00000000E+00  0.00000000E+00  0.00000000E+00  0.00000000E+00
  0.00000000E+00  0.00000000E+00  0.00000000E+00  0.00000000E+00  0.00000000E+00
  0.00000000E+00  0.00000000E+00  0.00000000E+00  0.00000000E+00  0.00000000E+00
  0.00000000E+00  0.00000000E+00  1.00000000E+00  0.00000000E+00  0.00000000E+00
  0.00000000E+00  0.00000000E+00  0.00000000E+00  0.00000000E+00  0.00000000E+00
  0.00000000E+00  0.00000000E+00  2.98773478E-01  0.00000000E+00  0.00000000E+00
  1.34556134E-01  0.00000000E+00  0.00000000E+00 -4.87919590E-02  0.00000000E+00
  0.00000000E+00 -2.66949917E-01  0.00000000E+00  0.00000000E+00 -4.07360808E-01
  0.00000000E+00  0.00000000E+00  8.83002944E-01  0.00000000E+00  0.00000000E+00
  0.00000000E+00  0.00000000E+00  0.00000000E+00  0.00000000E+00  0.00000000E+00
  0.00000000E+00  0.00000000E+00  0.00000000E+00  0.00000000E+00  0.00000000E+00
  0.00000000E+00  0.00000000E+00  0.00000000E+00  0.00000000E+00  2.98773478E-01
  0.00000000E+00  0.00000000E+00  1.34556134E-01  0.00000000E+00  0.00000000E+00
 -4.87919590E-02  0.00000000E+00  0.00000000E+00 -2.66949917E-01  0.00000000E+00
  0.00000000E+00 -4.07360808E-01  0.00000000E+00  0.00000000E+00  8.83002944E-01
  0.00000000E+00  0.00000000E+00  0.00000000E+00  0.00000000E+00  0.00000000E+00
 -9.85710707E-04 -2.96094028E-03  7.41103324E-03  8.08609091E-03 -2.18554751E-02
 -7.86054552E-03  1.72762247E-02  0.00000000E+00  0.00000000E+00  0.00000000E+00
  0.00000000E+00  0.00000000E+00  0.00000000E+00  0.00000000E+00  0.00000000E+00
  0.00000000E+00  0.00000000E+00  0.00000000E+00  0.00000000E+00  0.00000000E+00
  0.00000000E+00  0.00000000E+00  0.00000000E+00  0.00000000E+00  0.00000000E+00
  4.99888572E-01  0.00000000E+00  0.00000000E+00  8.65832405E-01  0.00000000E+00
  0.00000000E+00  0.00000000E+00  0.00000000E+00  0.00000000E+00  0.00000000E+00
  0.00000000E+00  0.00000000E+00  0.00000000E+00  3.07133043E-01  0.00000000E+00
  0.00000000E+00  1.37806424E-01  0.00000000E+00  0.00000000E+00 -5.02690813E-02
  0.00000000E+00  0.00000000E+00 -2.66630114E-01  0.00000000E+00  0.00000000E+00
 -4.23708066E-01  0.00000000E+00  0.00000000E+00  8.75352790E-01  0.00000000E+00
  0.00000000E+00  0.00000000E+00  0.00000000E+00  0.00000000E+00  0.00000000E+00
  0.00000000E+00  0.00000000E+00  0.00000000E+00  0.00000000E+00  0.00000000E+00
  0.00000000E+00  0.00000000E+00  0.00000000E+00 -1.84544989E+00  0.00000000E+00
  0.00000000E+00  1.08112411E-01  0.00000000E+00  0.00000000E+00 -4.10046093E-02
  0.00000000E+00  0.00000000E+00 -2.18525022E-01  0.00000000E+00  0.00000000E+00
 -4.43684607E-01  0.00000000E+00  0.00000000E+00  1.96399257E+00  0.00000000E+00
  0.00000000E+00  0.00000000E+00  0.00000000E+00  0.00000000E+00  0.00000000E+00
  0.00000000E+00  0.00000000E+00  0.00000000E+00  0.00000000E+00  0.00000000E+00
  0.00000000E+00  0.00000000E+00  0.00000000E+00  0.00000000E+00 -1.84519855E+00
  0.00000000E+00  0.00000000E+00  1.05935633E-01  0.00000000E+00  0.00000000E+00
 -3.99550273E-02  0.00000000E+00  0.00000000E+00 -2.19075331E-01  0.00000000E+00
  0.00000000E+00 -4.28955340E-01  0.00000000E+00  0.00000000E+00  1.95538373E+00
  0.00000000E+00  0.00000000E+00  0.00000000E+00  0.00000000E+00  0.00000000E+00
  0.00000000E+00  0.00000000E+00  0.00000000E+00  0.00000000E+00  0.00000000E+00
  0.00000000E+00  0.00000000E+00 -1.84519855E+00  0.00000000E+00  0.00000000E+00
  1.05935633E-01  0.00000000E+00  0.00000000E+00 -3.99550273E-02  0.00000000E+00
  0.00000000E+00 -2.19075331E-01  0.00000000E+00  0.00000000E+00 -4.28955340E-01
  0.00000000E+00  0.00000000E+00  1.95538373E+00  0.00000000E+00  0.00000000E+00
  0.00000000E+00  0.00000000E+00  0.00000000E+00  0.00000000E+00  0.00000000E+00
 -2.71460345E-02 -7.61573161E-02  1.40011331E-01  4.83339573E-01 -2.06206486E+00
  2.71361980E+00 -1.43501445E+00  0.00000000E+00  0.00000000E+00  0.00000000E+00
  0.00000000E+00  0.00000000E+00  0.00000000E+00  0.00000000E+00  0.00000000E+00
  0.00000000E+00  0.00000000E+00  0.00000000E+00  0.00000000E+00  0.00000000E+00
  0.00000000E+00  0.00000000E+00  0.00000000E+00  0.00000000E+00  0.00000000E+00
  1.37248689E-03  0.00000000E+00  0.00000000E+00  2.37721703E-03  0.00000000E+00
  0.00000000E+00  0.00000000E+00  0.00000000E+00  0.00000000E+00  0.00000000E+00
  0.00000000E+00  0.00000000E+00  7.30274809E-01  0.00000000E+00  0.00000000E+00
  4.58304274E-01  0.00000000E+00  0.00000000E+00 -1.20401335E-01  0.00000000E+00
  0.00000000E+00 -1.90752298E+00  0.00000000E+00  0.00000000E+00  2.24481561E+00
  0.00000000E+00  0.00000000E+00 -1.53348469E+00  0.00000000E+00  0.00000000E+00
  0.00000000E+00  0.00000000E+00  0.00000000E+00  0.00000000E+00  0.00000000E+00
  0.00000000E+00  0.00000000E+00  0.00000000E+00  0.00000000E+00  0.00000000E+00
  0.00000000E+00  0.00000000E+00  0.00000000E+00  0.00000000E+00  7.30274809E-01
  0.00000000E+00  0.00000000E+00  4.58304274E-01  0.00000000E+00  0.00000000E+00
 -1.20401335E-01  0.00000000E+00  0.00000000E+00 -1.90752298E+00  0.00000000E+00
  0.00000000E+00  2.24481561E+00  0.00000000E+00  0.00000000E+00 -1.53348469E+00
  0.00000000E+00  0.00000000E+00  0.00000000E+00  0.00000000E+00  0.00000000E+00
  0.00000000E+00  0.00000000E+00  0.00000000E+00  0.00000000E+00  0.00000000E+00
  0.00000000E+00  0.00000000E+00  0.00000000E+00  7.25989121E-01  0.00000000E+00
  0.00000000E+00  4.61365508E-01  0.00000000E+00  0.00000000E+00 -1.22229682E-01
  0.00000000E+00  0.00000000E+00 -1.91094184E+00  0.00000000E+00  0.00000000E+00
  2.23733528E+00  0.00000000E+00  0.00000000E+00 -1.52557912E+00  0.00000000E+00
  0.00000000E+00  0.00000000E+00  0.00000000E+00  0.00000000E+00  0.00000000E+00
  1.17722952E-01  4.78119139E-01 -2.63688666E+00  3.08612471E+00 -1.72224041E+00
  9.52379927E-01 -2.66993674E-01  0.00000000E+00  0.00000000E+00  0.00000000E+00
  0.00000000E+00  0.00000000E+00  0.00000000E+00  0.00000000E+00  0.00000000E+00
  0.00000000E+00  0.00000000E+00  0.00000000E+00  0.00000000E+00  0.00000000E+00
  0.00000000E+00  0.00000000E+00  0.00000000E+00  0.00000000E+00  0.00000000E+00
  4.27173772E-04  0.00000000E+00  0.00000000E+00  7.39886677E-04  0.00000000E+00
  0.00000000E+00  0.00000000E+00  0.00000000E+00  0.00000000E+00  0.00000000E+00
  0.00000000E+00  0.00000000E+00  0.00000000E+00 -2.59338262E-01  0.00000000E+00
  0.00000000E+00 -2.22039151E+00  0.00000000E+00  0.00000000E+00 -1.76396529E+00
  0.00000000E+00  0.00000000E+00  2.41398112E+00  0.00000000E+00  0.00000000E+00
 -1.24851516E+00  0.00000000E+00  0.00000000E+00  5.83593644E-01  0.00000000E+00
  0.00000000E+00  0.00000000E+00  0.00000000E+00  0.00000000E+00  0.00000000E+00
  0.00000000E+00  0.00000000E+00  0.00000000E+00  0.00000000E+00  0.00000000E+00
  0.00000000E+00  0.00000000E+00 -2.59201647E-01  0.00000000E+00  0.00000000E+00
 -2.22024939E+00  0.00000000E+00  0.00000000E+00 -1.76400588E+00  0.00000000E+00
  0.00000000E+00  2.41330269E+00  0.00000000E+00  0.00000000E+00 -1.24810368E+00
  0.00000000E+00  0.00000000E+00  5.83292873E-01  0.00000000E+00  0.00000000E+00
  0.00000000E+00  0.00000000E+00  0.00000000E+00  0.00000000E+00  0.00000000E+00
  0.00000000E+00  0.00000000E+00  0.00000000E+00  0.00000000E+00  0.00000000E+00
  0.00000000E+00  0.00000000E+00  0.00000000E+00  0.00000000E+00 -2.59201647E-01
  0.00000000E+00  0.00000000E+00 -2.22024939E+00  0.00000000E+00  0.00000000E+00
 -1.76400588E+00  0.00000000E+00  0.00000000E+00  2.41330269E+00  0.00000000E+00
  0.00000000E+00 -1.24810368E+00  0.00000000E+00  0.00000000E+00  5.83292873E-01
  0.00000000E+00  0.00000000E+00  0.00000000E+00  0.00000000E+00  0.00000000E+00
 -1.54158827E+00  1.91469835E+00 -1.43643826E+00  9.57925577E-01 -3.79529459E-01
  1.99775014E-01 -5.56013193E-02  0.00000000E+00  0.00000000E+00  0.00000000E+00
  0.00000000E+00  0.00000000E+00  0.00000000E+00  0.00000000E+00  0.00000000E+00
  0.00000000E+00  0.00000000E+00  0.00000000E+00  0.00000000E+00  0.00000000E+00
  0.00000000E+00  0.00000000E+00  0.00000000E+00  0.00000000E+00  0.00000000E+00
  1.23338352E-06  0.00000000E+00  0.00000000E+00  2.13628292E-06  0.00000000E+00
Beta MO coefficients                       R   N=         900
  4.11848870E-01  6.54009978E-01  1.44714412E-02 -3.49657337E-03  1.15809759E-03
 -5.94622294E-04  1.64414613E-04  0.00000000E+00  0.00000000E+00  0.00000000E+00
  0.00000000E+00  0.00000000E+00  0.00000000E+00  0.00000000E+00  0.00000000E+00
  0.00000000E+00  0.00000000E+00  0.00000000E+00  0.00000000E+00  0.00000000E+00
  0.00000000E+00  0.00000000E+00  0.00000000E+00  0.00000000E+00  0.00000000E+00
 -5.12251947E-07  0.00000000E+00  0.00000000E+00 -8.87246399E-07  0.00000000E+00
 -1.22073249E-01 -3.28455293E-01  5.02541538E-01  6.11080584E-01  4.81392856E-02
 -1.44407626E-02  3.50009322E-03  0.00000000E+00  0.00000000E+00  0.00000000E+00
  0.00000000E+00  0.00000000E+00  0.00000000E+00  0.00000000E+00  0.00000000E+00
  0.00000000E+00  0.00000000E+00  0.00000000E+00  0.00000000E+00  0.00000000E+00
  0.00000000E+00  0.00000000E+00  0.00000000E+00  0.00000000E+00  0.00000000E+00
 -5.18012212E-04  0.00000000E+00  0.00000000E+00 -8.97223470E-04  0.00000000E+00
  0.00000000E+00  0.00000000E+00  0.00000000E+00  0.00000000E+00  0.00000000E+00
  0.00000000E+00  0.00000000E+00  0.00000000E+00 -1.67776312E-04  0.00000000E+00
  0.00000000E+00  8.04588126E-01  0.00000000E+00  0.00000000E+00 -2.74556248E-01
  0.00000000E+00  0.00000000E+00  5.08820359E-02  0.00000000E+00  0.00000000E+00
 -2.10083251E-03  0.00000000E+00  0.00000000E+00  4.79269602E-04  0.00000000E+00
  0.00000000E+00  0.00000000E+00  0.00000000E+00  0.00000000E+00  0.00000000E+00
  0.00000000E+00  0.00000000E+00  0.00000000E+00  0.00000000E+00  0.00000000E+00
  0.00000000E+00  0.00000000E+00 -6.99843023E-05  0.00000000E+00  0.00000000E+00
  8.05091937E-01  0.00000000E+00  0.00000000E+00 -2.75000089E-01  0.00000000E+00
  0.00000000E+00  4.91144637E-02  0.00000000E+00  0.00000000E+00 -1.65471255E-03
  0.00000000E+00  0.00000000E+00  2.61684445E-04  0.00000000E+00  0.00000000E+00
  0.00000000E+00  0.00000000E+00  0.00000000E+00  0.00000000E+00  0.00000000E+00
  0.00000000E+00  0.00000000E+00  0.00000000E+00  0.00000000E+00  0.00000000E+00
  0.00000000E+00  0.00000000E+00  0.00000000E+00  0.00000000E+00 -6.99843023E-05
  0.00000000E+00  0.00000000E+00  8.05091937E-01  0.00000000E+00  0.00000000E+00
 -2.75000089E-01  0.00000000E+00  0.00000000E+00  4.91144637E-02  0.00000000E+00
  0.00000000E+00 -1.65471255E-03  0.00000000E+00  0.00000000E+00  2.61684445E-04
  0.00000000E+00  0.00000000E+00  0.00000000E+00  0.00000000E+00  0.00000000E+00
  4.31480879E-02  1.24212207E-01 -2.56958629E-01 -4.78264902E-01  9.01884140E-01
  3.67420061E-01 -3.34446287E-02  0.00000000E+00  0.00000000E+00  0.00000000E+00
  0.00000000E+00  0.00000000E+00  0.00000000E+00  0.00000000E+00  0.00000000E+00
  0.00000000E+00  0.00000000E+00  0.00000000E+00  0.00000000E+00  0.00000000E+00
  0.00000000E+00  0.00000000E+00  0.00000000E+00  0.00000000E+00  0.00000000E+00
 -1.93795661E-02  0.00000000E+00  0.00000000E+00 -3.35663932E-02  0.00000000E+00
  0.00000000E+00  0.00000000E+00  0.00000000E+00  0.00000000E+00  0.00000000E+00
  0.00000000E+00  0.00000000E+00  0.00000000E+00 -2.15782693E-02  0.00000000E+00
  0.00000000E+00 -2.82734612E-01  0.00000000E+00  0.00000000E+00  1.05138735E-01
  0.00000000E+00  0.00000000E+00  3.87615675E-01  0.00000000E+00  0.00000000E+00
  6.68601222E-01  0.00000000E+00  0.00000000E+00  1.03364041E-01  0.00000000E+00
  0.00000000E+00  0.00000000E+00  0.00000000E+00  0.00000000E+00  0.00000000E+00
  0.00000000E+00  0.00000000E+00  0.00000000E+00  0.00000000E+00  0.00000000E+00
  0.00000000E+00  0.00000000E+00 -2.77822722E-02  0.00000000E+00  0.00000000E+00
 -2.77323913E-01  0.00000000E+00  0.00000000E+00  1.04554041E-01  0.00000000E+00
  0.00000000E+00  3.78467713E-01  0.00000000E+00  0.00000000E+00  6.63342657E-01
  0.00000000E+00  0.00000000E+00  1.25928259E-01  0.00000000E+00  0.00000000E+00