fubar                                                                   
SP        RPBE1PBE                                                    6-311+G(d,p)        
Number of atoms                            I                1
Info1-9                                    I   N=           9
          11          10           0           0           0         110
           1          18       -1302
Full Title                                 C   N=           1
fubar       
Route                                      C   N=           3
#PBE1PBE/6-311+G(d,p) scf=tight     
Charge                                     I               -2
Multiplicity                               I                1
Number of electrons                        I               18
Number of alpha electrons                  I                9
Number of beta electrons                   I                9
Number of basis functions                  I               30
Number of independent functions            I               30
Number of point charges in /Mol/           I                0
Number of translation vectors              I                0
Atomic numbers                             I   N=           1
          16
Nuclear charges                            R   N=           1
  1.60000000E+01
Current cartesian coordinates              R   N=           3
  0.00000000E+00  0.00000000E+00  0.00000000E+00
Number of symbols in /Mol/                 I                0
Int Atom Types                             I   N=           1
           0
Force Field                                I                0
Atom Types                                 C   N=           1
            
MM charges                                 R   N=           1
  0.00000000E+00
Integer atomic weights                     I   N=           1
          32
Real atomic weights                        R   N=           1
  3.19720718E+01
Atom fragment info                         I   N=           1
           0
Atom residue num                           I   N=           1
           0
Nuclear spins                              I   N=           1
           0
Nuclear ZEff                               R   N=           1
 -1.36000000E+01
Nuclear ZNuc                               R   N=           1
  1.60000000E+01
Nuclear QMom                               R   N=           1
  0.00000000E+00
Nuclear GFac                               R   N=           1
  0.00000000E+00
MicOpt                                     I   N=           1
          -1
Number of residues                         I                0
Number of secondary structures             I                0
SymInf integers                            I   N=          26
           1           8           1           1           1           1
          -1          -1          -1           1          -1          -1
          -1           1          -1          -1          -1          -1
           1           1           1          -1           1           1
           1          -1
RotTr to input orientation                 R   N=          12
  0.00000000E+00  0.00000000E+00 -1.00000000E+00  0.00000000E+00  1.00000000E+00
  0.00000000E+00  1.00000000E+00  0.00000000E+00  0.00000000E+00  0.00000000E+00
  0.00000000E+00  0.00000000E+00
Number of contracted shells                I               13
Number of primitive shells                 I               24
Pure/Cartesian d shells                    I                0
Pure/Cartesian f shells                    I                0
Highest angular momentum                   I                2
Largest degree of contraction              I                6
Shell types                                I   N=          13
           0           0           0           0           0           0
          -1           1           1           1           1           1
          -2
Number of primitives per shell             I   N=          13
           6           3           1           1           1           1
           1           4           2           1           1           1
           1
Shell to atom map                          I   N=          13
           1           1           1           1           1           1
           1           1           1           1           1           1
           1
Primitive exponents                        R   N=          24
  9.34134000E+04  1.39617000E+04  3.16991000E+03  9.02456000E+02  2.97158000E+02
  1.08702000E+02  1.08702000E+02  4.31553000E+01  1.81079000E+01  5.56009000E+00
  2.13183000E+00  4.20403000E-01  1.36045000E-01  4.05000000E-02  4.95040000E+02
  1.17221000E+02  3.77749000E+01  1.40584000E+01  5.56574000E+00  2.26297000E+00
  8.07994000E-01  2.77460000E-01  7.71410000E-02  6.50000000E-01
Contraction coefficients                   R   N=          24
  7.42999957E-04  5.79299966E-03  2.99539983E-02  1.19027993E-01  3.68431979E-01
  5.77298966E-01  1.43186060E-01  6.24465262E-01  2.83366119E-01  1.00000000E+00
  1.00000000E+00  1.00000000E+00  1.00000000E+00  1.00000000E+00  8.30900251E-03
  6.40240194E-02  2.77614084E-01  7.45076225E-01  6.13711672E-01  4.43817763E-01
  1.00000000E+00  1.00000000E+00  1.00000000E+00  1.00000000E+00
P(S=P) Contraction coefficients            R   N=          24
  0.00000000E+00  0.00000000E+00  0.00000000E+00  0.00000000E+00  0.00000000E+00
  0.00000000E+00  0.00000000E+00  0.00000000E+00  0.00000000E+00  0.00000000E+00
  0.00000000E+00  0.00000000E+00  0.00000000E+00  1.00000000E+00  0.00000000E+00
  0.00000000E+00  0.00000000E+00  0.00000000E+00  0.00000000E+00  0.00000000E+00
  0.00000000E+00  0.00000000E+00  0.00000000E+00  0.00000000E+00
Coordinates of each shell                  R   N=          39
  0.00000000E+00  0.00000000E+00  0.00000000E+00  0.00000000E+00  0.00000000E+00
  0.00000000E+00  0.00000000E+00  0.00000000E+00  0.00000000E+00  0.00000000E+00
  0.00000000E+00  0.00000000E+00  0.00000000E+00  0.00000000E+00  0.00000000E+00
  0.00000000E+00  0.00000000E+00  0.00000000E+00  0.00000000E+00  0.00000000E+00
  0.00000000E+00  0.00000000E+00  0.00000000E+00  0.00000000E+00  0.00000000E+00
  0.00000000E+00  0.00000000E+00  0.00000000E+00  0.00000000E+00  0.00000000E+00
  0.00000000E+00  0.00000000E+00  0.00000000E+00  0.00000000E+00  0.00000000E+00
  0.00000000E+00  0.00000000E+00  0.00000000E+00  0.00000000E+00
Num ILSW                                   I              100
ILSW                                       I   N=         100
           0           0           0           0           2           0
           0           0           0           0        1009          -1
           5           0           0           0           0           0
           0           0           0           0           0           0
           1           0           0           0           0           0
           0           0      100000           0          -1           0
           0           0           0           0           0           0
           0           0           0           1           0           0
           0 -2000000000           1           0           0           0
           0           0           4          52           0           0
           0           0          13           0           0           0
           0           0           0           1           0           1
           0           0           0           0           0           0
           0           0           0           0           0           0
           0           0           0           0           0           0
           0           0           0           0           0           0
           0           0           0           0
Num RLSW                                   I               52
RLSW                                       R   N=          52
  7.50000000E-01  7.50000000E-01  1.00000000E+00  1.00000000E+00  2.50000000E-01
  0.00000000E+00  0.00000000E+00  1.00000000E+00  0.00000000E+00  0.00000000E+00
  0.00000000E+00  0.00000000E+00  1.00000000E+00  0.00000000E+00  0.00000000E+00
  0.00000000E+00  0.00000000E+00  1.00000000E+00  0.00000000E+00  0.00000000E+00
  0.00000000E+00  0.00000000E+00  1.00000000E+00  0.00000000E+00  0.00000000E+00
  0.00000000E+00  0.00000000E+00  1.00000000E+00  0.00000000E+00  0.00000000E+00
  0.00000000E+00  0.00000000E+00  1.00000000E+00  0.00000000E+00  0.00000000E+00
  0.00000000E+00  0.00000000E+00  0.00000000E+00  1.00000000E+00  1.00000000E+00
  0.00000000E+00  1.00000000E+00  0.00000000E+00  0.00000000E+00  0.00000000E+00
  0.00000000E+00  0.00000000E+00  0.00000000E+00  0.00000000E+00  0.00000000E+00
  0.00000000E+00  0.00000000E+00
MxBond                                     I                1
NBond                                      I   N=           1
           0
IBond                                      I   N=           1
           0
RBond                                      R   N=           1
  0.00000000E+00
Virial Ratio                               R      2.001124808737316E+00
SCF Energy                                 R     -3.978960526254413E+02
Total Energy                               R     -3.978960526254413E+02
RMS Density                                R      1.731122407001238E-09
Job Status                                 I                1
Nuclear derivative order                   I                0
External E-field                           R   N=          35
  0.00000000E+00  0.00000000E+00  0.00000000E+00  0.00000000E+00  0.00000000E+00
  0.00000000E+00  0.00000000E+00  0.00000000E+00  0.00000000E+00  0.00000000E+00
  0.00000000E+00  0.00000000E+00  0.00000000E+00  0.00000000E+00  0.00000000E+00
  0.00000000E+00  0.00000000E+00  0.00000000E+00  0.00000000E+00  0.00000000E+00
  0.00000000E+00  0.00000000E+00  0.00000000E+00  0.00000000E+00  0.00000000E+00
  0.00000000E+00  0.00000000E+00  0.00000000E+00  0.00000000E+00  0.00000000E+00
  0.00000000E+00  0.00000000E+00  0.00000000E+00  0.00000000E+00  0.00000000E+00
IOpCl                                      I                0
IROHF                                      I                0
Alpha Orbital Energies                     R   N=          30
 -8.85448420E+01 -7.52226166E+00 -5.45600732E+00 -5.45600732E+00 -5.45600732E+00
 -1.84029200E-01  1.97280636E-01  1.97280636E-01  1.97280636E-01  3.36912607E-01
  3.36912607E-01  3.36912607E-01  3.49930874E-01  7.23178233E-01  7.23178233E-01
  7.23178233E-01  1.02472600E+00  1.28168199E+00  1.28168199E+00  1.28168199E+00
  1.28168199E+00  1.28168199E+00  2.14327184E+00  2.14327184E+00  2.14327184E+00
  8.10860744E+00  1.78550847E+01  1.78550847E+01  1.78550847E+01  1.89428312E+02
Alpha MO coefficients                      R   N=         900
  4.11075415E-01  6.54275616E-01  1.49962915E-02 -4.12084943E-03  1.35839652E-03
 -7.77038039E-04  2.40256266E-04  0.00000000E+00  0.00000000E+00  0.00000000E+00
  0.00000000E+00  0.00000000E+00  0.00000000E+00  0.00000000E+00  0.00000000E+00
  0.00000000E+00  0.00000000E+00  0.00000000E+00  0.00000000E+00  0.00000000E+00
  0.00000000E+00  0.00000000E+00  0.00000000E+00  0.00000000E+00  0.00000000E+00
  1.53230670E-16  0.00000000E+00  0.00000000E+00 -3.40390389E-16  0.00000000E+00
 -1.19686136E-01 -3.21100978E-01  5.20341047E-01  5.92760997E-01  4.79714284E-02
 -1.71204478E-02  4.94913326E-03  0.00000000E+00  0.00000000E+00  0.00000000E+00
  0.00000000E+00  0.00000000E+00  0.00000000E+00  0.00000000E+00  0.00000000E+00
  0.00000000E+00  0.00000000E+00  0.00000000E+00  0.00000000E+00  0.00000000E+00
  0.00000000E+00  0.00000000E+00  0.00000000E+00  0.00000000E+00  0.00000000E+00
 -4.25133398E-16  0.00000000E+00  0.00000000E+00 -6.21164393E-16  0.00000000E+00
  0.00000000E+00  0.00000000E+00  0.00000000E+00  0.00000000E+00  0.00000000E+00
  0.00000000E+00  0.00000000E+00  0.00000000E+00 -1.83141277E-03  0.00000000E+00
  0.00000000E+00  3.77309815E-01  0.00000000E+00  0.00000000E+00  7.09377346E-01
  0.00000000E+00  0.00000000E+00  5.61401538E-02  0.00000000E+00  0.00000000E+00
 -6.17344425E-03  0.00000000E+00  0.00000000E+00  3.49233941E-03  0.00000000E+00
  0.00000000E+00  0.00000000E+00  0.00000000E+00  0.00000000E+00  0.00000000E+00
  0.00000000E+00  0.00000000E+00  0.00000000E+00  0.00000000E+00  0.00000000E+00
  0.00000000E+00  0.00000000E+00 -1.83141277E-03  0.00000000E+00  0.00000000E+00
  3.77309815E-01  0.00000000E+00  0.00000000E+00  7.09377346E-01  0.00000000E+00
  0.00000000E+00  5.61401538E-02  0.00000000E+00  0.00000000E+00 -6.17344425E-03
  0.00000000E+00  0.00000000E+00  3.49233941E-03  0.00000000E+00  0.00000000E+00
  0.00000000E+00  0.00000000E+00  0.00000000E+00  0.00000000E+00  0.00000000E+00
  0.00000000E+00  0.00000000E+00  0.00000000E+00  0.00000000E+00  0.00000000E+00
  0.00000000E+00  0.00000000E+00  0.00000000E+00  0.00000000E+00 -1.83141277E-03
  0.00000000E+00  0.00000000E+00  3.77309815E-01  0.00000000E+00  0.00000000E+00
  7.09377346E-01  0.00000000E+00  0.00000000E+00  5.61401538E-02  0.00000000E+00
  0.00000000E+00 -6.17344425E-03  0.00000000E+00  0.00000000E+00  3.49233941E-03
  0.00000000E+00  0.00000000E+00  0.00000000E+00  0.00000000E+00  0.00000000E+00
  3.55447918E-02  1.01536439E-01 -2.19291880E-01 -3.74553075E-01  6.69342288E-01
  5.01485369E-01  3.59719267E-02  0.00000000E+00  0.00000000E+00  0.00000000E+00
  0.00000000E+00  0.00000000E+00  0.00000000E+00  0.00000000E+00  0.00000000E+00
  0.00000000E+00  0.00000000E+00  0.00000000E+00  0.00000000E+00  0.00000000E+00
  0.00000000E+00  0.00000000E+00  0.00000000E+00  0.00000000E+00  0.00000000E+00
  2.33111810E-16  0.00000000E+00  0.00000000E+00  4.56404773E-16  0.00000000E+00
  0.00000000E+00  0.00000000E+00  0.00000000E+00  0.00000000E+00  0.00000000E+00
  0.00000000E+00  0.00000000E+00  3.71517648E-01  0.00000000E+00  0.00000000E+00
 -8.73842085E-02  0.00000000E+00  0.00000000E+00 -1.65773202E-01  0.00000000E+00
  0.00000000E+00  2.27778811E-01  0.00000000E+00  0.00000000E+00  5.11273690E-01
  0.00000000E+00  0.00000000E+00  1.68551667E-01  0.00000000E+00  0.00000000E+00
  0.00000000E+00  0.00000000E+00  0.00000000E+00  0.00000000E+00  0.00000000E+00
  0.00000000E+00  0.00000000E+00  0.00000000E+00  0.00000000E+00  0.00000000E+00
  0.00000000E+00  0.00000000E+00  0.00000000E+00  3.71517648E-01  0.00000000E+00
  0.00000000E+00 -8.73842085E-02  0.00000000E+00  0.00000000E+00 -1.65773202E-01
  0.00000000E+00  0.00000000E+00  2.27778811E-01  0.00000000E+00  0.00000000E+00
  5.11273690E-01  0.00000000E+00  0.00000000E+00  1.68551667E-01  0.00000000E+00
  0.00000000E+00  0.00000000E+00  0.00000000E+00  0.00000000E+00  0.00000000E+00
  0.00000000E+00  0.00000000E+00  0.00000000E+00  0.00000000E+00  0.00000000E+00
  0.00000000E+00  0.00000000E+00  0.00000000E+00  0.00000000E+00  3.71517648E-01
  0.00000000E+00  0.00000000E+00 -8.73842085E-02  0.00000000E+00  0.00000000E+00
 -1.65773202E-01  0.00000000E+00  0.00000000E+00  2.27778811E-01  0.00000000E+00
  0.00000000E+00  5.11273690E-01  0.00000000E+00  0.00000000E+00  1.68551667E-01
  0.00000000E+00  0.00000000E+00  0.00000000E+00  0.00000000E+00  0.00000000E+00
  0.00000000E+00  0.00000000E+00  0.00000000E+00  0.00000000E+00  0.00000000E+00
  0.00000000E+00  0.00000000E+00  1.91116221E+00  0.00000000E+00  0.00000000E+00
  4.56030740E-02  0.00000000E+00  0.00000000E+00  9.29466505E-02  0.00000000E+00
  0.00000000E+00 -1.72160631E-01  0.00000000E+00  0.00000000E+00 -7.84441877E-02
  0.00000000E+00  0.00000000E+00 -1.42450334E+00  0.00000000E+00  0.00000000E+00
  0.00000000E+00  0.00000000E+00  0.00000000E+00  0.00000000E+00  0.00000000E+00
  0.00000000E+00  0.00000000E+00  0.00000000E+00  0.00000000E+00  0.00000000E+00
  0.00000000E+00  0.00000000E+00  0.00000000E+00  0.00000000E+00  1.91116221E+00
  0.00000000E+00  0.00000000E+00  4.56030740E-02  0.00000000E+00  0.00000000E+00
  9.29466505E-02  0.00000000E+00  0.00000000E+00 -1.72160631E-01  0.00000000E+00
  0.00000000E+00 -7.84441877E-02  0.00000000E+00  0.00000000E+00 -1.42450334E+00
  0.00000000E+00  0.00000000E+00  0.00000000E+00  0.00000000E+00  0.00000000E+00
  0.00000000E+00  0.00000000E+00  0.00000000E+00  0.00000000E+00  0.00000000E+00
  0.00000000E+00  0.00000000E+00  0.00000000E+00  1.91116221E+00  0.00000000E+00
  0.00000000E+00  4.56030740E-02  0.00000000E+00  0.00000000E+00  9.29466505E-02
  0.00000000E+00  0.00000000E+00 -1.72160631E-01  0.00000000E+00  0.00000000E+00
 -7.84441877E-02  0.00000000E+00  0.00000000E+00 -1.42450334E+00  0.00000000E+00
  0.00000000E+00  0.00000000E+00  0.00000000E+00  0.00000000E+00  0.00000000E+00
 -9.54715003E-03 -2.84788670E-02  7.21459195E-02  6.97702689E-02  4.11259144E-04
 -1.10698115E+00  1.57264603E+00  0.00000000E+00  0.00000000E+00  0.00000000E+00
  0.00000000E+00  0.00000000E+00  0.00000000E+00  0.00000000E+00  0.00000000E+00
  0.00000000E+00  0.00000000E+00  0.00000000E+00  0.00000000E+00  0.00000000E+00
  0.00000000E+00  0.00000000E+00  0.00000000E+00  0.00000000E+00  0.00000000E+00
  2.35834923E-16  0.00000000E+00  0.00000000E+00 -5.36832138E-16  0.00000000E+00
  0.00000000E+00  0.00000000E+00  0.00000000E+00  0.00000000E+00  0.00000000E+00
  0.00000000E+00  0.00000000E+00 -1.44526171E+00  0.00000000E+00  0.00000000E+00
  7.89202917E-02  0.00000000E+00  0.00000000E+00  1.34582511E-01  0.00000000E+00
  0.00000000E+00 -1.17243565E-01  0.00000000E+00  0.00000000E+00 -1.13731753E+00
  0.00000000E+00  0.00000000E+00  2.47452206E+00  0.00000000E+00  0.00000000E+00
  0.00000000E+00  0.00000000E+00  0.00000000E+00  0.00000000E+00  0.00000000E+00
  0.00000000E+00  0.00000000E+00  0.00000000E+00  0.00000000E+00  0.00000000E+00
  0.00000000E+00  0.00000000E+00  0.00000000E+00 -1.44526171E+00  0.00000000E+00
  0.00000000E+00  7.89202917E-02  0.00000000E+00  0.00000000E+00  1.34582511E-01
  0.00000000E+00  0.00000000E+00 -1.17243565E-01  0.00000000E+00  0.00000000E+00
 -1.13731753E+00  0.00000000E+00  0.00000000E+00  2.47452206E+00  0.00000000E+00
  0.00000000E+00  0.00000000E+00  0.00000000E+00  0.00000000E+00  0.00000000E+00
  0.00000000E+00  0.00000000E+00  0.00000000E+00  0.00000000E+00  0.00000000E+00
  0.00000000E+00  0.00000000E+00  0.00000000E+00  0.00000000E+00 -1.44526171E+00
  0.00000000E+00  0.00000000E+00  7.89202917E-02  0.00000000E+00  0.00000000E+00
  1.34582511E-01  0.00000000E+00  0.00000000E+00 -1.17243565E-01  0.00000000E+00
  0.00000000E+00 -1.13731753E+00  0.00000000E+00  0.00000000E+00  2.47452206E+00
  0.00000000E+00  0.00000000E+00  0.00000000E+00  0.00000000E+00  0.00000000E+00
 -3.35491729E-02 -9.19725481E-02  1.64752695E-01  5.79000171E-01 -2.34153202E+00
  2.65601924E+00 -9.57149518E-01  0.00000000E+00  0.00000000E+00  0.00000000E+00
  0.00000000E+00  0.00000000E+00  0.00000000E+00  0.00000000E+00  0.00000000E+00
  0.00000000E+00  0.00000000E+00  0.00000000E+00  0.00000000E+00  0.00000000E+00
  0.00000000E+00  0.00000000E+00  0.00000000E+00  0.00000000E+00  0.00000000E+00
 -1.23812904E-14  0.00000000E+00  0.00000000E+00  1.51243153E-14  0.00000000E+00
  0.00000000E+00  0.00000000E+00  0.00000000E+00  0.00000000E+00  0.00000000E+00
  0.00000000E+00  0.00000000E+00  0.00000000E+00  0.00000000E+00  0.00000000E+00
  0.00000000E+00  0.00000000E+00  0.00000000E+00  0.00000000E+00  0.00000000E+00
  0.00000000E+00  0.00000000E+00  0.00000000E+00  0.00000000E+00  0.00000000E+00
  0.00000000E+00  0.00000000E+00  0.00000000E+00  0.00000000E+00  0.00000000E+00
  0.00000000E+00  0.00000000E+00  0.00000000E+00  0.00000000E+00  1.00000000E+00
  0.00000000E+00  0.00000000E+00  0.00000000E+00  0.00000000E+00  0.00000000E+00
  0.00000000E+00  0.00000000E+00  0.00000000E+00  0.00000000E+00  0.00000000E+00
  0.00000000E+00  0.00000000E+00  0.00000000E+00  0.00000000E+00  0.00000000E+00
  0.00000000E+00  0.00000000E+00  0.00000000E+00  0.00000000E+00  0.00000000E+00
  0.00000000E+00  0.00000000E+00  0.00000000E+00  0.00000000E+00  0.00000000E+00
  0.00000000E+00  1.00000000E+00  0.00000000E+00  0.00000000E+00  0.00000000E+00
  0.00000000E+00  0.00000000E+00  0.00000000E+00  0.00000000E+00  0.00000000E+00
  0.00000000E+00  0.00000000E+00  0.00000000E+00  0.00000000E+00  0.00000000E+00
  0.00000000E+00  0.00000000E+00  0.00000000E+00  0.00000000E+00  0.00000000E+00
  0.00000000E+00  0.00000000E+00  0.00000000E+00  0.00000000E+00  0.00000000E+00
  0.00000000E+00  0.00000000E+00  0.00000000E+00  0.00000000E+00  0.00000000E+00
  0.00000000E+00  0.00000000E+00  1.00000000E+00  0.00000000E+00  0.00000000E+00
  6.96146521E-17  1.41899367E-16 -1.46431274E-17 -1.18529088E-15  4.19434839E-15
 -5.31119459E-15  1.78087291E-15  0.00000000E+00  0.00000000E+00  0.00000000E+00
  0.00000000E+00  0.00000000E+00  0.00000000E+00  0.00000000E+00  0.00000000E+00
  0.00000000E+00  0.00000000E+00  0.00000000E+00  0.00000000E+00  0.00000000E+00
  0.00000000E+00  0.00000000E+00  0.00000000E+00  0.00000000E+00  0.00000000E+00
  7.03856436E-01  0.00000000E+00  0.00000000E+00  7.10342254E-01  0.00000000E+00
 -7.33117307E-16 -1.84257276E-15  2.52872013E-15  1.17427435E-14 -4.63186878E-14
  5.41439756E-14 -2.07246274E-14  0.00000000E+00  0.00000000E+00  0.00000000E+00
  0.00000000E+00  0.00000000E+00  0.00000000E+00  0.00000000E+00  0.00000000E+00
  0.00000000E+00  0.00000000E+00  0.00000000E+00  0.00000000E+00  0.00000000E+00
  0.00000000E+00  0.00000000E+00  0.00000000E+00  0.00000000E+00  0.00000000E+00
  7.10342254E-01  0.00000000E+00  0.00000000E+00 -7.03856436E-01  0.00000000E+00
  0.00000000E+00  0.00000000E+00  0.00000000E+00  0.00000000E+00  0.00000000E+00
  0.00000000E+00  0.00000000E+00  0.00000000E+00  6.70513492E-01  0.00000000E+00
  0.00000000E+00  1.75511955E-01  0.00000000E+00  0.00000000E+00  4.22347426E-01
  0.00000000E+00  0.00000000E+00 -1.79643068E+00  0.00000000E+00  0.00000000E+00
  1.91189395E+00  0.00000000E+00  0.00000000E+00 -1.30322926E+00  0.00000000E+00
  0.00000000E+00  0.00000000E+00  0.00000000E+00  0.00000000E+00  0.00000000E+00
  0.00000000E+00  0.00000000E+00  0.00000000E+00  0.00000000E+00  0.00000000E+00
  0.00000000E+00  0.00000000E+00  6.70513492E-01  0.00000000E+00  0.00000000E+00
  1.75511955E-01  0.00000000E+00  0.00000000E+00  4.22347426E-01  0.00000000E+00
  0.00000000E+00 -1.79643068E+00  0.00000000E+00  0.00000000E+00  1.91189395E+00
  0.00000000E+00  0.00000000E+00 -1.30322926E+00  0.00000000E+00  0.00000000E+00
  0.00000000E+00  0.00000000E+00  0.00000000E+00  0.00000000E+00  0.00000000E+00
  0.00000000E+00  0.00000000E+00  0.00000000E+00  0.00000000E+00  0.00000000E+00
  0.00000000E+00  0.00000000E+00  0.00000000E+00  0.00000000E+00  6.70513492E-01
  0.00000000E+00  0.00000000E+00  1.75511955E-01  0.00000000E+00  0.00000000E+00
  4.22347426E-01  0.00000000E+00  0.00000000E+00 -1.79643068E+00  0.00000000E+00
  0.00000000E+00  1.91189395E+00  0.00000000E+00  0.00000000E+00 -1.30322926E+00
  0.00000000E+00  0.00000000E+00  0.00000000E+00  0.00000000E+00  0.00000000E+00
  1.14868751E-01  4.54219128E-01 -2.51456033E+00  2.86945691E+00 -1.53814077E+00
  9.01135025E-01 -2.74382601E-01  0.00000000E+00  0.00000000E+00  0.00000000E+00
  0.00000000E+00  0.00000000E+00  0.00000000E+00  0.00000000E+00  0.00000000E+00
  0.00000000E+00  0.00000000E+00  0.00000000E+00  0.00000000E+00  0.00000000E+00
  0.00000000E+00  0.00000000E+00  0.00000000E+00  0.00000000E+00  0.00000000E+00
  3.21162705E-16  0.00000000E+00  0.00000000E+00 -7.11501946E-16  0.00000000E+00
  0.00000000E+00  0.00000000E+00  0.00000000E+00  0.00000000E+00  0.00000000E+00
  0.00000000E+00  0.00000000E+00  0.00000000E+00  1.80347308E-01  0.00000000E+00
  0.00000000E+00 -1.21209720E+00  0.00000000E+00  0.00000000E+00  1.37280518E+00
  0.00000000E+00  0.00000000E+00 -9.35622087E-01  0.00000000E+00  0.00000000E+00
  5.60662116E-01  0.00000000E+00  0.00000000E+00 -3.41581381E-01  0.00000000E+00
  0.00000000E+00  0.00000000E+00  0.00000000E+00  0.00000000E+00  0.00000000E+00
  0.00000000E+00  0.00000000E+00  0.00000000E+00  0.00000000E+00  0.00000000E+00
  0.00000000E+00  0.00000000E+00  0.00000000E+00  0.00000000E+00  1.80347308E-01
  0.00000000E+00  0.00000000E+00 -1.21209720E+00  0.00000000E+00  0.00000000E+00
  1.37280518E+00  0.00000000E+00  0.00000000E+00 -9.35622087E-01  0.00000000E+00
  0.00000000E+00  5.60662116E-01  0.00000000E+00  0.00000000E+00 -3.41581381E-01
  0.00000000E+00  0.00000000E+00  0.00000000E+00  0.00000000E+00  0.00000000E+00
  0.00000000E+00  0.00000000E+00  0.00000000E+00  0.00000000E+00  0.00000000E+00
  0.00000000E+00  0.00000000E+00  1.80347308E-01  0.00000000E+00  0.00000000E+00
 -1.21209720E+00  0.00000000E+00  0.00000000E+00  1.37280518E+00  0.00000000E+00
  0.00000000E+00 -9.35622087E-01  0.00000000E+00  0.00000000E+00  5.60662116E-01
  0.00000000E+00  0.00000000E+00 -3.41581381E-01  0.00000000E+00  0.00000000E+00
  0.00000000E+00  0.00000000E+00  0.00000000E+00  0.00000000E+00  0.00000000E+00
 -1.53760498E+00  1.87587181E+00 -1.34034485E+00  8.64286348E-01 -3.31066037E-01
  1.90392600E-01 -5.91583309E-02  0.00000000E+00  0.00000000E+00  0.00000000E+00
  0.00000000E+00  0.00000000E+00  0.00000000E+00  0.00000000E+00  0.00000000E+00
  0.00000000E+00  0.00000000E+00  0.00000000E+00  0.00000000E+00  0.00000000E+00
  0.00000000E+00  0.00000000E+00  0.00000000E+00  0.00000000E+00  0.00000000E+00
  1.44298928E-16  0.00000000E+00  0.00000000E+00 -2.26043967E-16  0.00000000E+00
Orthonormal basis                          R   N=         900
  1.08576506E-01  1.71204907E-01  2.43750702E-01  2.67194316E-01  2.65830156E-01
  2.36305595E-01  1.73025763E-01  0.00000000E+00  0.00000000E+00  0.00000000E+00
  0.00000000E+00  0.00000000E+00  0.00000000E+00  0.00000000E+00  0.00000000E+00
  0.00000000E+00  0.00000000E+00  0.00000000E+00  0.00000000E+00  0.00000000E+00
  0.00000000E+00  0.00000000E+00  0.00000000E+00  0.00000000E+00  0.00000000E+00
 -3.43456488E-18  0.00000000E+00  0.00000000E+00 -9.35481751E-18  0.00000000E+00
  3.24301339E-01  3.65429863E-01  2.20828366E-01  8.33380091E-02 -1.92014541E-01
 -3.05172389E-01 -2.93090486E-01  0.00000000E+00  0.00000000E+00  0.00000000E+00
  0.00000000E+00  0.00000000E+00  0.00000000E+00  0.00000000E+00  0.00000000E+00
  0.00000000E+00  0.00000000E+00  0.00000000E+00  0.00000000E+00  0.00000000E+00
  0.00000000E+00  0.00000000E+00  0.00000000E+00  0.00000000E+00  0.00000000E+00
  1.39797337E-18  0.00000000E+00  0.00000000E+00  3.40765143E-17  0.00000000E+00
  5.23001648E-01  2.85010354E-01 -3.44164176E-01 -4.34177749E-01 -9.07889340E-02
  2.27535921E-01  3.73849809E-01  0.00000000E+00  0.00000000E+00  0.00000000E+00
  0.00000000E+00  0.00000000E+00  0.00000000E+00  0.00000000E+00  0.00000000E+00
  0.00000000E+00  0.00000000E+00  0.00000000E+00  0.00000000E+00  0.00000000E+00
  0.00000000E+00  0.00000000E+00  0.00000000E+00  0.00000000E+00  0.00000000E+00
  9.21168486E-17  0.00000000E+00  0.00000000E+00 -2.40383015E-16  0.00000000E+00
  8.01384920E-30  1.04954675E-19 -2.93595422E-19 -9.11270566E-20  6.70941012E-18
 -6.43231161E-17  1.20676137E-16  0.00000000E+00  0.00000000E+00  0.00000000E+00
  0.00000000E+00  0.00000000E+00  0.00000000E+00  0.00000000E+00  0.00000000E+00
  0.00000000E+00  0.00000000E+00  0.00000000E+00  0.00000000E+00  0.00000000E+00
  0.00000000E+00  0.00000000E+00  0.00000000E+00  0.00000000E+00  0.00000000E+00
  8.85648307E-01  0.00000000E+00  0.00000000E+00  4.64356626E-01  0.00000000E+00
  1.50862582E-16  1.08328830E-16 -2.56476159E-16 -3.54719260E-17 -5.10355803E-17
  3.04283408E-16 -8.33416090E-17  0.00000000E+00  0.00000000E+00  0.00000000E+00
  0.00000000E+00  0.00000000E+00  0.00000000E+00  0.00000000E+00  0.00000000E+00
  0.00000000E+00  0.00000000E+00  0.00000000E+00  0.00000000E+00  0.00000000E+00
  0.00000000E+00  0.00000000E+00  0.00000000E+00  0.00000000E+00  0.00000000E+00
 -4.64356626E-01  0.00000000E+00  0.00000000E+00  8.85648307E-01  0.00000000E+00
 -4.58943363E-01  1.94212110E-01  5.58164378E-01 -2.49528784E-02 -8.49320289E-01
 -1.58083621E-01  8.68805287E-01  0.00000000E+00  0.00000000E+00  0.00000000E+00
  0.00000000E+00  0.00000000E+00  0.00000000E+00  0.00000000E+00  0.00000000E+00
  0.00000000E+00  0.00000000E+00  0.00000000E+00  0.00000000E+00  0.00000000E+00
  0.00000000E+00  0.00000000E+00  0.00000000E+00  0.00000000E+00  0.00000000E+00
 -2.21237083E-16  0.00000000E+00  0.00000000E+00  1.86850799E-16  0.00000000E+00
 -1.14075077E+00  1.30556476E+00  9.51921114E-02 -8.77805721E-01  3.29778628E-01
  5.15111825E-01 -5.64700388E-01  0.00000000E+00  0.00000000E+00  0.00000000E+00
  0.00000000E+00  0.00000000E+00  0.00000000E+00  0.00000000E+00  0.00000000E+00
  0.00000000E+00  0.00000000E+00  0.00000000E+00  0.00000000E+00  0.00000000E+00
  0.00000000E+00  0.00000000E+00  0.00000000E+00  0.00000000E+00  0.00000000E+00
  1.62727882E-16  0.00000000E+00  0.00000000E+00 -9.74292177E-17  0.00000000E+00
  6.71523473E-01 -1.17252988E+00  1.63804314E+00 -9.96765051E-01 -9.95506247E-01
  1.89783404E+00 -1.09201214E+00  0.00000000E+00  0.00000000E+00  0.00000000E+00
  0.00000000E+00  0.00000000E+00  0.00000000E+00  0.00000000E+00  0.00000000E+00
  0.00000000E+00  0.00000000E+00  0.00000000E+00  0.00000000E+00  0.00000000E+00
  0.00000000E+00  0.00000000E+00  0.00000000E+00  0.00000000E+00  0.00000000E+00
  3.64212115E-16  0.00000000E+00  0.00000000E+00 -1.32477972E-16  0.00000000E+00
 -4.58078348E-01  9.56476416E-01 -2.28922087E+00  2.78944459E+00 -2.54394711E+00
  2.29936353E+00 -9.73473919E-01  0.00000000E+00  0.00000000E+00  0.00000000E+00
  0.00000000E+00  0.00000000E+00  0.00000000E+00  0.00000000E+00  0.00000000E+00
  0.00000000E+00  0.00000000E+00  0.00000000E+00  0.00000000E+00  0.00000000E+00
  0.00000000E+00  0.00000000E+00  0.00000000E+00  0.00000000E+00  0.00000000E+00
  7.11276850E-16  0.00000000E+00  0.00000000E+00 -7.49453614E-16  0.00000000E+00
  0.00000000E+00  0.00000000E+00  0.00000000E+00  0.00000000E+00  0.00000000E+00
  0.00000000E+00  0.00000000E+00  0.00000000E+00  0.00000000E+00  0.00000000E+00
  0.00000000E+00  0.00000000E+00  0.00000000E+00  0.00000000E+00  0.00000000E+00