fubar                                                                   
SP        UPBE1PBE                                                    6-311+G(d,p)        
Number of atoms                            I                1
Info1-9                                    I   N=           9
          11          10           0           0           0         110
           1          18       -1302
Full Title                                 C   N=           1
fubar       
Route                                      C   N=           3
#PBE1PBE/6-311+G(d,p) scf=tight     
Charge                                     I                1
Multiplicity                               I                3
Number of electrons                        I                8
Number of alpha electrons                  I                5
Number of beta electrons                   I                3
Number of basis functions                  I               22
Number of independent functions            I               22
Number of point charges in /Mol/           I                0
Number of translation vectors              I                0
Atomic numbers                             I   N=           1
           9
Nuclear charges                            R   N=           1
  9.00000000E+00
Current cartesian coordinates              R   N=           3
  0.00000000E+00  0.00000000E+00  0.00000000E+00
Number of symbols in /Mol/                 I                0
Int Atom Types                             I   N=           1
           0
Force Field                                I                0
Atom Types                                 C   N=           1
            
MM charges                                 R   N=           1
  0.00000000E+00
Integer atomic weights                     I   N=           1
          19
Real atomic weights                        R   N=           1
  1.89984032E+01
Atom fragment info                         I   N=           1
           0
Atom residue num                           I   N=           1
           0
Nuclear spins                              I   N=           1
           1
Nuclear ZEff                               R   N=           1
 -6.75000000E+00
Nuclear ZNuc                               R   N=           1
  9.00000000E+00
Nuclear QMom                               R   N=           1
  0.00000000E+00
Nuclear GFac                               R   N=           1
  2.62886700E+00
MicOpt                                     I   N=           1
          -1
Number of residues                         I                0
Number of secondary structures             I                0
SymInf integers                            I   N=          26
           1           8           1           1           1           1
          -1          -1          -1           1          -1          -1
          -1           1          -1          -1          -1          -1
           1           1           1          -1           1           1
           1          -1
RotTr to input orientation                 R   N=          12
  0.00000000E+00  0.00000000E+00 -1.00000000E+00  0.00000000E+00  1.00000000E+00
  0.00000000E+00  1.00000000E+00  0.00000000E+00  0.00000000E+00  0.00000000E+00
  0.00000000E+00  0.00000000E+00
Number of contracted shells                I                6
Number of primitive shells                 I               13
Pure/Cartesian d shells                    I                0
Pure/Cartesian f shells                    I                0
Highest angular momentum                   I                2
Largest degree of contraction              I                6
Shell types                                I   N=           6
           0          -1          -1          -1          -1          -2
Number of primitives per shell             I   N=           6
           6           3           1           1           1           1
Shell to atom map                          I   N=           6
           1           1           1           1           1           1
Primitive exponents                        R   N=          13
  1.14271000E+04  1.72235000E+03  3.95746000E+02  1.15139000E+02  3.36026000E+01
  4.91901000E+00  5.54441000E+01  1.26323000E+01  3.71756000E+00  1.16545000E+00
  3.21892000E-01  1.07600000E-01  1.75000000E+00
Contraction coefficients                   R   N=          13
  1.80093016E-03  1.37419012E-02  6.81334059E-02  2.33325020E-01  5.89086051E-01
  2.99505026E-01  1.14536016E-01  9.20512125E-01 -3.37804046E-03  1.00000000E+00
  1.00000000E+00  1.00000000E+00  1.00000000E+00
P(S=P) Contraction coefficients            R   N=          13
  0.00000000E+00  0.00000000E+00  0.00000000E+00  0.00000000E+00  0.00000000E+00
  0.00000000E+00  3.54608874E-02  2.37450915E-01  8.20457708E-01  1.00000000E+00
  1.00000000E+00  1.00000000E+00  0.00000000E+00
Coordinates of each shell                  R   N=          18
  0.00000000E+00  0.00000000E+00  0.00000000E+00  0.00000000E+00  0.00000000E+00
  0.00000000E+00  0.00000000E+00  0.00000000E+00  0.00000000E+00  0.00000000E+00
  0.00000000E+00  0.00000000E+00  0.00000000E+00  0.00000000E+00  0.00000000E+00
  0.00000000E+00  0.00000000E+00  0.00000000E+00
Num ILSW                                   I              100
ILSW                                       I   N=         100
           1           0           0           0           2           0
           0           0           0           0        1009          -1
           5           0           0           0           0           0
           0           0           0           0           0           0
           1           0           0           0           0           0
           0           0      100000           0          -1           0
           0           0           0           0           0           0
           0           0           0           1           0           0
           0 -2000000000           1           0           0           0
           0           1           4          52           0           0
           0           0          13           0           0           0
           0           0           0           1           0           1
           0           0           0           0           0           0
           0           0           0           0           0           0
           0           0           0           0           0           0
           0           0           0           0           0           0
           0           0           0           0
Num RLSW                                   I               52
RLSW                                       R   N=          52
  7.50000000E-01  7.50000000E-01  1.00000000E+00  1.00000000E+00  2.50000000E-01
  0.00000000E+00  0.00000000E+00  1.00000000E+00  0.00000000E+00  0.00000000E+00
  0.00000000E+00  0.00000000E+00  1.00000000E+00  0.00000000E+00  0.00000000E+00
  0.00000000E+00  0.00000000E+00  1.00000000E+00  0.00000000E+00  0.00000000E+00
  0.00000000E+00  0.00000000E+00  1.00000000E+00  0.00000000E+00  0.00000000E+00
  0.00000000E+00  0.00000000E+00  1.00000000E+00  0.00000000E+00  0.00000000E+00
  0.00000000E+00  0.00000000E+00  1.00000000E+00  0.00000000E+00  0.00000000E+00
  0.00000000E+00  0.00000000E+00  0.00000000E+00  1.00000000E+00  1.00000000E+00
  0.00000000E+00  1.00000000E+00  0.00000000E+00  0.00000000E+00  0.00000000E+00
  0.00000000E+00  0.00000000E+00  0.00000000E+00  0.00000000E+00  0.00000000E+00
  0.00000000E+00  0.00000000E+00
MxBond                                     I                1
NBond                                      I   N=           1
           0
IBond                                      I   N=           1
           0
RBond                                      R   N=           1
  0.00000000E+00
Virial Ratio                               R      2.001267213132838E+00
SCF Energy                                 R     -9.902362961647738E+01
Total Energy                               R     -9.902362961647738E+01
S**2                                       R      2.002004625145029E+00
S**2 after annihilation                    R      2.000000997002705E+00
RMS Density                                R      3.685640746556001E-09
Job Status                                 I                1
Nuclear derivative order                   I                0
External E-field                           R   N=          35
  0.00000000E+00  0.00000000E+00  0.00000000E+00  0.00000000E+00  0.00000000E+00
  0.00000000E+00  0.00000000E+00  0.00000000E+00  0.00000000E+00  0.00000000E+00
  0.00000000E+00  0.00000000E+00  0.00000000E+00  0.00000000E+00  0.00000000E+00
  0.00000000E+00  0.00000000E+00  0.00000000E+00  0.00000000E+00  0.00000000E+00
  0.00000000E+00  0.00000000E+00  0.00000000E+00  0.00000000E+00  0.00000000E+00
  0.00000000E+00  0.00000000E+00  0.00000000E+00  0.00000000E+00  0.00000000E+00
  0.00000000E+00  0.00000000E+00  0.00000000E+00  0.00000000E+00  0.00000000E+00
IOpCl                                      I                1
IROHF                                      I                0
Alpha Orbital Energies                     R   N=          22
 -2.56421952E+01 -1.95533172E+00 -1.24012899E+00 -1.24012899E+00 -1.13516505E+00
 -1.93404010E-01 -9.28144819E-02 -9.28144819E-02 -7.91811666E-02  7.40026560E-01
  7.40026560E-01  7.83329591E-01  9.97936223E-01  2.95801872E+00  2.95801872E+00
  3.03564643E+00  3.03564643E+00  3.06280608E+00  5.47458012E+00  5.47458012E+00
  5.56336754E+00  6.59545097E+01
Beta Orbital Energies                      R   N=          22
 -2.55688418E+01 -1.73891063E+00 -1.06492527E+00 -8.23608372E-01 -8.23608372E-01
 -1.67793259E-01 -7.17224019E-02 -5.81859069E-02 -5.81859069E-02  8.08357608E-01
  8.39060044E-01  8.39060044E-01  1.08107400E+00  3.15916565E+00  3.15916565E+00
  3.17185304E+00  3.20173694E+00  3.20173697E+00  5.61593545E+00  5.66051416E+00
  5.66051416E+00  6.60192620E+01
Alpha MO coefficients                      R   N=         484
  5.47262061E-01  4.72269218E-01  0.00000000E+00  0.00000000E+00  0.00000000E+00
  1.18635920E-02  0.00000000E+00  0.00000000E+00  0.00000000E+00 -5.11581035E-03
  0.00000000E+00  0.00000000E+00  0.00000000E+00  1.93027729E-03  0.00000000E+00
  0.00000000E+00  0.00000000E+00  1.76904817E-04  0.00000000E+00  0.00000000E+00
 -3.06408130E-04  0.00000000E+00 -1.37472253E-01 -2.26050306E-01  0.00000000E+00
  0.00000000E+00  0.00000000E+00  7.25843602E-01  0.00000000E+00  0.00000000E+00
  0.00000000E+00  4.24320020E-01  0.00000000E+00  0.00000000E+00  0.00000000E+00
 -3.49548756E-02  0.00000000E+00  0.00000000E+00  0.00000000E+00  8.00278444E-03
  0.00000000E+00  0.00000000E+00 -1.38612292E-02  0.00000000E+00  0.00000000E+00
  0.00000000E+00  0.00000000E+00  0.00000000E+00  3.64800182E-01  0.00000000E+00
  0.00000000E+00  0.00000000E+00  5.37982915E-01  0.00000000E+00  0.00000000E+00
  0.00000000E+00  3.13064870E-01  0.00000000E+00  0.00000000E+00  0.00000000E+00
 -1.34190761E-02  0.00000000E+00  0.00000000E+00  0.00000000E+00  0.00000000E+00
  0.00000000E+00  0.00000000E+00  0.00000000E+00  0.00000000E+00  3.64800182E-01
  0.00000000E+00  0.00000000E+00  0.00000000E+00  5.37982915E-01  0.00000000E+00
  0.00000000E+00  0.00000000E+00  3.13064870E-01  0.00000000E+00  0.00000000E+00
  0.00000000E+00 -1.34190761E-02  0.00000000E+00  0.00000000E+00  0.00000000E+00
  0.00000000E+00  0.00000000E+00  0.00000000E+00  0.00000000E+00  0.00000000E+00
  3.58258517E-01  0.00000000E+00  0.00000000E+00  0.00000000E+00  5.23764023E-01
  0.00000000E+00  0.00000000E+00  0.00000000E+00  3.35781099E-01  0.00000000E+00
  0.00000000E+00  0.00000000E+00 -7.41194614E-03  0.00000000E+00  0.00000000E+00
  0.00000000E+00  0.00000000E+00  0.00000000E+00  0.00000000E+00  0.00000000E+00
  4.21968852E-02  7.18635363E-02  0.00000000E+00  0.00000000E+00  0.00000000E+00
 -2.73383938E-01  0.00000000E+00  0.00000000E+00  0.00000000E+00 -6.90948649E-01
  0.00000000E+00  0.00000000E+00  0.00000000E+00  1.46334458E+00  0.00000000E+00
  0.00000000E+00  0.00000000E+00 -2.15308831E-03  0.00000000E+00  0.00000000E+00
  3.72925835E-03  0.00000000E+00  0.00000000E+00  0.00000000E+00  0.00000000E+00
  0.00000000E+00 -1.21242523E-01  0.00000000E+00  0.00000000E+00  0.00000000E+00
 -1.62923125E-01  0.00000000E+00  0.00000000E+00  0.00000000E+00 -2.11166311E-01
  0.00000000E+00  0.00000000E+00  0.00000000E+00  1.12730739E+00  0.00000000E+00
  0.00000000E+00  0.00000000E+00  0.00000000E+00  0.00000000E+00  0.00000000E+00
  0.00000000E+00  0.00000000E+00 -1.21242523E-01  0.00000000E+00  0.00000000E+00
  0.00000000E+00 -1.62923125E-01  0.00000000E+00  0.00000000E+00  0.00000000E+00
 -2.11166311E-01  0.00000000E+00  0.00000000E+00  0.00000000E+00  1.12730739E+00
  0.00000000E+00  0.00000000E+00  0.00000000E+00  0.00000000E+00  0.00000000E+00
  0.00000000E+00  0.00000000E+00  0.00000000E+00 -1.22096198E-01  0.00000000E+00
  0.00000000E+00  0.00000000E+00 -1.59650877E-01  0.00000000E+00  0.00000000E+00
  0.00000000E+00 -2.50084883E-01  0.00000000E+00  0.00000000E+00  0.00000000E+00
  1.14597965E+00  0.00000000E+00  0.00000000E+00  0.00000000E+00  0.00000000E+00
  0.00000000E+00  0.00000000E+00  0.00000000E+00  0.00000000E+00  0.00000000E+00
  0.00000000E+00 -2.54000325E-01  0.00000000E+00  0.00000000E+00  0.00000000E+00
 -7.03415653E-01  0.00000000E+00  0.00000000E+00  0.00000000E+00  1.69244219E+00
  0.00000000E+00  0.00000000E+00  0.00000000E+00 -9.54572277E-01  0.00000000E+00
  0.00000000E+00  0.00000000E+00  0.00000000E+00  0.00000000E+00  0.00000000E+00
  0.00000000E+00  0.00000000E+00  0.00000000E+00  0.00000000E+00 -2.54000325E-01
  0.00000000E+00  0.00000000E+00  0.00000000E+00 -7.03415653E-01  0.00000000E+00
  0.00000000E+00  0.00000000E+00  1.69244219E+00  0.00000000E+00  0.00000000E+00
  0.00000000E+00 -9.54572277E-01  0.00000000E+00  0.00000000E+00  0.00000000E+00
  0.00000000E+00  0.00000000E+00  0.00000000E+00  0.00000000E+00 -2.56817913E-01
  0.00000000E+00  0.00000000E+00  0.00000000E+00 -7.21670602E-01  0.00000000E+00
  0.00000000E+00  0.00000000E+00  1.68643738E+00  0.00000000E+00  0.00000000E+00
  0.00000000E+00 -9.33326899E-01  0.00000000E+00  0.00000000E+00  0.00000000E+00
  0.00000000E+00  0.00000000E+00  0.00000000E+00  0.00000000E+00  1.14782174E-01
  2.27073802E-01  0.00000000E+00  0.00000000E+00  0.00000000E+00 -1.71455102E+00
  0.00000000E+00  0.00000000E+00  0.00000000E+00  2.57934729E+00  0.00000000E+00
  0.00000000E+00  0.00000000E+00 -1.27607017E+00  0.00000000E+00  0.00000000E+00
  0.00000000E+00 -4.06329243E-03  0.00000000E+00  0.00000000E+00  7.03782893E-03
  0.00000000E+00  0.00000000E+00  0.00000000E+00  0.00000000E+00  0.00000000E+00
  0.00000000E+00  0.00000000E+00  0.00000000E+00  0.00000000E+00  0.00000000E+00
  0.00000000E+00  0.00000000E+00  0.00000000E+00  0.00000000E+00  0.00000000E+00
  0.00000000E+00  0.00000000E+00  0.00000000E+00  0.00000000E+00  0.00000000E+00
  1.00000000E+00  0.00000000E+00  0.00000000E+00  1.36241834E-16  2.21633720E-16
  0.00000000E+00  0.00000000E+00  0.00000000E+00 -1.49356737E-15  0.00000000E+00
  0.00000000E+00  0.00000000E+00  2.15377305E-15  0.00000000E+00  0.00000000E+00
  0.00000000E+00 -1.63232909E-15  0.00000000E+00  0.00000000E+00  0.00000000E+00
  8.66025404E-01  0.00000000E+00  0.00000000E+00  5.00000000E-01  0.00000000E+00
  0.00000000E+00  0.00000000E+00  0.00000000E+00  0.00000000E+00  0.00000000E+00
  0.00000000E+00  0.00000000E+00  0.00000000E+00  0.00000000E+00  0.00000000E+00
  0.00000000E+00  0.00000000E+00  0.00000000E+00  0.00000000E+00  0.00000000E+00
  0.00000000E+00  0.00000000E+00  0.00000000E+00  0.00000000E+00  0.00000000E+00
  0.00000000E+00  1.00000000E+00  0.00000000E+00  0.00000000E+00  0.00000000E+00
  0.00000000E+00  0.00000000E+00  0.00000000E+00  0.00000000E+00  0.00000000E+00
  0.00000000E+00  0.00000000E+00  0.00000000E+00  0.00000000E+00  0.00000000E+00
  0.00000000E+00  0.00000000E+00  0.00000000E+00  0.00000000E+00  0.00000000E+00
  1.00000000E+00  0.00000000E+00  0.00000000E+00  0.00000000E+00 -3.56173610E-03
 -5.15402499E-03  0.00000000E+00  0.00000000E+00  0.00000000E+00  2.66997568E-02
  0.00000000E+00  0.00000000E+00  0.00000000E+00 -1.11611858E-02  0.00000000E+00
  0.00000000E+00  0.00000000E+00  3.49529715E-03  0.00000000E+00  0.00000000E+00
  0.00000000E+00 -4.99914762E-01  0.00000000E+00  0.00000000E+00  8.65877767E-01
  0.00000000E+00  0.00000000E+00  0.00000000E+00  0.00000000E+00 -1.25004204E+00
  0.00000000E+00  0.00000000E+00  0.00000000E+00  1.51658899E+00  0.00000000E+00
  0.00000000E+00  0.00000000E+00 -8.77504197E-01  0.00000000E+00  0.00000000E+00
  0.00000000E+00  3.32974815E-01  0.00000000E+00  0.00000000E+00  0.00000000E+00
  0.00000000E+00  0.00000000E+00  0.00000000E+00  0.00000000E+00  0.00000000E+00
  0.00000000E+00  0.00000000E+00 -1.25004204E+00  0.00000000E+00  0.00000000E+00
  0.00000000E+00  1.51658899E+00  0.00000000E+00  0.00000000E+00  0.00000000E+00
 -8.77504197E-01  0.00000000E+00  0.00000000E+00  0.00000000E+00  3.32974815E-01
  0.00000000E+00  0.00000000E+00  0.00000000E+00  0.00000000E+00  0.00000000E+00
  0.00000000E+00  0.00000000E+00 -1.25127459E+00  0.00000000E+00  0.00000000E+00
  0.00000000E+00  1.51333397E+00  0.00000000E+00  0.00000000E+00  0.00000000E+00
 -8.70409431E-01  0.00000000E+00  0.00000000E+00  0.00000000E+00  3.29634790E-01
  0.00000000E+00  0.00000000E+00  0.00000000E+00  0.00000000E+00  0.00000000E+00
  0.00000000E+00  0.00000000E+00 -2.32577176E+00  2.39278446E+00  0.00000000E+00
  0.00000000E+00  0.00000000E+00 -1.96744823E-01  0.00000000E+00  0.00000000E+00
  0.00000000E+00  1.95504343E-01  0.00000000E+00  0.00000000E+00  0.00000000E+00
 -8.02571499E-02  0.00000000E+00  0.00000000E+00  0.00000000E+00  9.45792639E-05
  0.00000000E+00  0.00000000E+00 -1.63816090E-04  0.00000000E+00
Beta MO coefficients                       R   N=         484
  5.48790969E-01  4.71840567E-01  0.00000000E+00  0.00000000E+00  0.00000000E+00
  8.53932603E-03  0.00000000E+00  0.00000000E+00  0.00000000E+00 -3.52408885E-03
  0.00000000E+00  0.00000000E+00  0.00000000E+00  1.30442170E-03  0.00000000E+00
  0.00000000E+00  0.00000000E+00 -2.16961275E-04  0.00000000E+00  0.00000000E+00
  3.75787951E-04  0.00000000E+00 -1.33631244E-01 -2.18034678E-01  0.00000000E+00
  0.00000000E+00  0.00000000E+00  6.83347881E-01  0.00000000E+00  0.00000000E+00
  0.00000000E+00  4.62999007E-01  0.00000000E+00  0.00000000E+00  0.00000000E+00
 -2.90718380E-02  0.00000000E+00  0.00000000E+00  0.00000000E+00 -4.66432176E-03
  0.00000000E+00  0.00000000E+00  8.07884227E-03  0.00000000E+00  0.00000000E+00
  0.00000000E+00  3.51732392E-01  0.00000000E+00  0.00000000E+00  0.00000000E+00
  5.12957636E-01  0.00000000E+00  0.00000000E+00  0.00000000E+00  3.53475504E-01
  0.00000000E+00  0.00000000E+00  0.00000000E+00 -1.75594709E-03  0.00000000E+00
  0.00000000E+00  0.00000000E+00  0.00000000E+00  0.00000000E+00  0.00000000E+00
  0.00000000E+00  0.00000000E+00  0.00000000E+00  0.00000000E+00  0.00000000E+00
  3.29364248E-01  0.00000000E+00  0.00000000E+00  0.00000000E+00  4.88509606E-01
  0.00000000E+00  0.00000000E+00  0.00000000E+00  3.93056567E-01  0.00000000E+00
  0.00000000E+00  0.00000000E+00  2.09091783E-02  0.00000000E+00  0.00000000E+00
  0.00000000E+00  0.00000000E+00  0.00000000E+00  0.00000000E+00  0.00000000E+00
  0.00000000E+00  3.29364248E-01  0.00000000E+00  0.00000000E+00  0.00000000E+00
  4.88509606E-01  0.00000000E+00  0.00000000E+00  0.00000000E+00  3.93056567E-01
  0.00000000E+00  0.00000000E+00  0.00000000E+00  2.09091783E-02  0.00000000E+00
  0.00000000E+00  0.00000000E+00  0.00000000E+00  0.00000000E+00  0.00000000E+00
  4.23657004E-02  7.10260642E-02  0.00000000E+00  0.00000000E+00  0.00000000E+00
 -2.48563034E-01  0.00000000E+00  0.00000000E+00  0.00000000E+00 -7.60954722E-01
  0.00000000E+00  0.00000000E+00  0.00000000E+00  1.49356817E+00  0.00000000E+00
  0.00000000E+00  0.00000000E+00  9.81777348E-04  0.00000000E+00  0.00000000E+00
 -1.70048825E-03  0.00000000E+00  0.00000000E+00  0.00000000E+00 -1.23585966E-01
  0.00000000E+00  0.00000000E+00  0.00000000E+00 -1.60137270E-01  0.00000000E+00
  0.00000000E+00  0.00000000E+00 -2.74718021E-01  0.00000000E+00  0.00000000E+00
  0.00000000E+00  1.15679429E+00  0.00000000E+00  0.00000000E+00  0.00000000E+00
  0.00000000E+00  0.00000000E+00  0.00000000E+00  0.00000000E+00  0.00000000E+00
  0.00000000E+00  0.00000000E+00  0.00000000E+00 -1.31385397E-01  0.00000000E+00
  0.00000000E+00  0.00000000E+00 -1.73470103E-01  0.00000000E+00  0.00000000E+00
  0.00000000E+00 -3.18037145E-01  0.00000000E+00  0.00000000E+00  0.00000000E+00
  1.17115661E+00  0.00000000E+00  0.00000000E+00  0.00000000E+00  0.00000000E+00
  0.00000000E+00  0.00000000E+00  0.00000000E+00  0.00000000E+00 -1.31385397E-01
  0.00000000E+00  0.00000000E+00  0.00000000E+00 -1.73470103E-01  0.00000000E+00
  0.00000000E+00  0.00000000E+00 -3.18037145E-01  0.00000000E+00  0.00000000E+00
  0.00000000E+00  1.17115661E+00  0.00000000E+00  0.00000000E+00  0.00000000E+00
  0.00000000E+00  0.00000000E+00  0.00000000E+00  0.00000000E+00  0.00000000E+00
 -2.58721560E-01  0.00000000E+00  0.00000000E+00  0.00000000E+00 -7.35711775E-01
  0.00000000E+00  0.00000000E+00  0.00000000E+00  1.68169646E+00  0.00000000E+00
  0.00000000E+00  0.00000000E+00 -9.20747965E-01  0.00000000E+00  0.00000000E+00
  0.00000000E+00  0.00000000E+00  0.00000000E+00  0.00000000E+00  0.00000000E+00
  0.00000000E+00  0.00000000E+00  0.00000000E+00 -2.64798790E-01  0.00000000E+00
  0.00000000E+00  0.00000000E+00 -7.65420019E-01  0.00000000E+00  0.00000000E+00
  0.00000000E+00  1.66911995E+00  0.00000000E+00  0.00000000E+00  0.00000000E+00
 -9.03247384E-01  0.00000000E+00  0.00000000E+00  0.00000000E+00  0.00000000E+00
  0.00000000E+00  0.00000000E+00  0.00000000E+00  0.00000000E+00  0.00000000E+00
  0.00000000E+00 -2.64798790E-01  0.00000000E+00  0.00000000E+00  0.00000000E+00
 -7.65420019E-01  0.00000000E+00  0.00000000E+00  0.00000000E+00  1.66911995E+00
  0.00000000E+00  0.00000000E+00  0.00000000E+00 -9.03247384E-01  0.00000000E+00
  0.00000000E+00  0.00000000E+00  0.00000000E+00  0.00000000E+00  1.18252797E-01
  2.32772638E-01  0.00000000E+00  0.00000000E+00  0.00000000E+00 -1.73576534E+00
  0.00000000E+00  0.00000000E+00  0.00000000E+00  2.55286253E+00  0.00000000E+00
  0.00000000E+00  0.00000000E+00 -1.24070981E+00  0.00000000E+00  0.00000000E+00
  0.00000000E+00  2.93232793E-03  0.00000000E+00  0.00000000E+00 -5.07894097E-03
  0.00000000E+00  0.00000000E+00  0.00000000E+00  0.00000000E+00  0.00000000E+00
  0.00000000E+00  0.00000000E+00  0.00000000E+00  0.00000000E+00  0.00000000E+00
  0.00000000E+00  0.00000000E+00  0.00000000E+00  0.00000000E+00  0.00000000E+00
  0.00000000E+00  0.00000000E+00  0.00000000E+00  0.00000000E+00  0.00000000E+00
  0.00000000E+00  0.00000000E+00  1.00000000E+00  0.00000000E+00  0.00000000E+00
  0.00000000E+00  0.00000000E+00  0.00000000E+00  0.00000000E+00  0.00000000E+00
  0.00000000E+00  0.00000000E+00  0.00000000E+00  0.00000000E+00  0.00000000E+00
  0.00000000E+00  0.00000000E+00  0.00000000E+00  0.00000000E+00  0.00000000E+00
  0.00000000E+00  1.00000000E+00  0.00000000E+00  0.00000000E+00  0.00000000E+00
  1.86353975E-03  3.25349051E-03  0.00000000E+00  0.00000000E+00  0.00000000E+00
 -1.70405843E-02  0.00000000E+00  0.00000000E+00  0.00000000E+00  9.15385399E-03
  0.00000000E+00  0.00000000E+00  0.00000000E+00 -4.07055296E-03  0.00000000E+00
  0.00000000E+00  0.00000000E+00 -4.99968633E-01  0.00000000E+00  0.00000000E+00
  8.65971075E-01  0.00000000E+00  2.11538503E-16  4.37233644E-16  0.00000000E+00
  0.00000000E+00  0.00000000E+00 -2.93731771E-15  0.00000000E+00  0.00000000E+00
  0.00000000E+00  2.35373925E-15  0.00000000E+00  0.00000000E+00  0.00000000E+00
 -6.42545937E-16  0.00000000E+00  0.00000000E+00  0.00000000E+00  8.66025404E-01
  0.00000000E+00  0.00000000E+00  5.00000000E-01  0.00000000E+00  0.00000000E+00
  0.00000000E+00  0.00000000E+00  0.00000000E+00  0.00000000E+00  0.00000000E+00
  0.00000000E+00  0.00000000E+00  0.00000000E+00  0.00000000E+00  0.00000000E+00
  0.00000000E+00  0.00000000E+00  0.00000000E+00  0.00000000E+00  0.00000000E+00
  0.00000000E+00  0.00000000E+00  0.00000000E+00  1.00000000E+00  0.00000000E+00
  0.00000000E+00  0.00000000E+00  0.00000000E+00 -1.25258700E+00  0.00000000E+00
  0.00000000E+00  0.00000000E+00  1.51021986E+00  0.00000000E+00  0.00000000E+00
  0.00000000E+00 -8.65134150E-01  0.00000000E+00  0.00000000E+00  0.00000000E+00
  3.27306536E-01  0.00000000E+00  0.00000000E+00  0.00000000E+00  0.00000000E+00
  0.00000000E+00  0.00000000E+00  0.00000000E+00  0.00000000E+00  0.00000000E+00
  0.00000000E+00 -1.25659813E+00  0.00000000E+00  0.00000000E+00  0.00000000E+00
  1.50206657E+00  0.00000000E+00  0.00000000E+00  0.00000000E+00 -8.57538642E-01
  0.00000000E+00  0.00000000E+00  0.00000000E+00  3.24317207E-01  0.00000000E+00
  0.00000000E+00  0.00000000E+00  0.00000000E+00  0.00000000E+00  0.00000000E+00
  0.00000000E+00  0.00000000E+00  0.00000000E+00  0.00000000E+00 -1.25659813E+00
  0.00000000E+00  0.00000000E+00  0.00000000E+00  1.50206657E+00  0.00000000E+00
  0.00000000E+00  0.00000000E+00 -8.57538642E-01  0.00000000E+00  0.00000000E+00
  0.00000000E+00  3.24317207E-01  0.00000000E+00  0.00000000E+00  0.00000000E+00
  0.00000000E+00  0.00000000E+00 -2.32546038E+00  2.39309357E+00  0.00000000E+00
  0.00000000E+00  0.00000000E+00 -1.97085053E-01  0.00000000E+00  0.00000000E+00
  0.00000000E+00  1.95548430E-01  0.00000000E+00  0.00000000E+00  0.00000000E+00
 -8.02575271E-02  0.00000000E+00  0.00000000E+00  0.00000000E+00 -1.68263558E-05
  0.00000000E+00  0.00000000E+00  2.91441031E-05  0.00000000E+00
Orthonormal basis                          R   N=         484
  2.43201941E-01  2.48566728E-01  0.00000000E+00  0.00000000E+00  0.00000000E+00
  3.11909684E-01  0.00000000E+00  0.00000000E+00  0.00000000E+00  3.08248900E-01
  0.00000000E+00  0.00000000E+00  0.00000000E+00  2.48713467E-01  0.00000000E+00
  0.00000000E+00  0.00000000E+00 -1.86450083E-17  0.00000000E+00  0.00000000E+00
 -1.65744237E-17  0.00000000E+00  4.33756576E-01  4.30075379E-01  0.00000000E+00
  0.00000000E+00  0.00000000E+00 -8.69081506E-02  0.00000000E+00  0.00000000E+00
  0.00000000E+00 -3.18143230E-01  0.00000000E+00  0.00000000E+00  0.00000000E+00
 -3.50676936E-01  0.00000000E+00  0.00000000E+00  0.00000000E+00  5.04247227E-17
  0.00000000E+00  0.00000000E+00  5.95485801E-17  0.00000000E+00 -6.77808663E-17
 -6.88289112E-17  0.00000000E+00  0.00000000E+00  0.00000000E+00  1.36908280E-16
  0.00000000E+00  0.00000000E+00  0.00000000E+00  1.29363799E-16  0.00000000E+00
  0.00000000E+00  0.00000000E+00 -9.95676482E-17  0.00000000E+00  0.00000000E+00
  0.00000000E+00  5.93254726E-01  0.00000000E+00  0.00000000E+00  8.05014801E-01
  0.00000000E+00 -3.41496546E-29 -1.12034312E-17  0.00000000E+00  0.00000000E+00
  0.00000000E+00  2.47945679E-17  0.00000000E+00  0.00000000E+00  0.00000000E+00
  1.74212799E-17  0.00000000E+00  0.00000000E+00  0.00000000E+00 -2.06756134E-17
  0.00000000E+00  0.00000000E+00  0.00000000E+00  8.05014801E-01  0.00000000E+00
  0.00000000E+00 -5.93254726E-01  0.00000000E+00 -2.80960915E-01 -1.92850672E-01
  0.00000000E+00  0.00000000E+00  0.00000000E+00  1.02585685E+00  0.00000000E+00
  0.00000000E+00  0.00000000E+00  5.78929334E-02  0.00000000E+00  0.00000000E+00
  0.00000000E+00 -8.90798636E-01  0.00000000E+00  0.00000000E+00  0.00000000E+00
 -1.95830849E-16  0.00000000E+00  0.00000000E+00 -1.86469796E-16  0.00000000E+00
  2.00973273E+00 -1.90689255E+00  0.00000000E+00  0.00000000E+00  0.00000000E+00
 -6.29485453E-01  0.00000000E+00  0.00000000E+00  0.00000000E+00  1.28490118E+00
  0.00000000E+00  0.00000000E+00  0.00000000E+00 -8.62468877E-01  0.00000000E+00
  0.00000000E+00  0.00000000E+00 -1.35125723E-16  0.00000000E+00  0.00000000E+00
 -1.05866146E-16  0.00000000E+00 -1.17359287E+00  1.46154954E+00  0.00000000E+00
  0.00000000E+00  0.00000000E+00 -1.42385398E+00  0.00000000E+00  0.00000000E+00
  0.00000000E+00  2.34484702E+00  0.00000000E+00  0.00000000E+00  0.00000000E+00
 -1.43359825E+00  0.00000000E+00  0.00000000E+00  0.00000000E+00 -1.50344135E-16
  0.00000000E+00  0.00000000E+00 -1.72298177E-16  0.00000000E+00  0.00000000E+00
  0.00000000E+00  0.00000000E+00  0.00000000E+00  0.00000000E+00  0.00000000E+00
  0.00000000E+00  0.00000000E+00  0.00000000E+00  0.00000000E+00  0.00000000E+00
  0.00000000E+00  0.00000000E+00  0.00000000E+00  0.00000000E+00  0.00000000E+00
  0.00000000E+00  0.00000000E+00  0.00000000E+00  0.00000000E+00  0.00000000E+00
  1.00000000E+00  0.00000000E+00  0.00000000E+00  0.00000000E+00  0.00000000E+00
  0.00000000E+00  0.00000000E+00  0.00000000E+00  0.00000000E+00  0.00000000E+00
  0.00000000E+00  0.00000000E+00  0.00000000E+00  0.00000000E+00  0.00000000E+00
  0.00000000E+00  0.00000000E+00  0.00000000E+00  0.00000000E+00  1.00000000E+00
  0.00000000E+00  0.00000000E+00  0.00000000E+00  0.00000000E+00  0.00000000E+00
  0.00000000E+00  0.00000000E+00  0.00000000E+00  0.00000000E+00  0.00000000E+00
  0.00000000E+00  0.00000000E+00  0.00000000E+00  0.00000000E+00  0.00000000E+00
  0.00000000E+00  0.00000000E+00  0.00000000E+00  0.00000000E+00  0.00000000E+00
  0.00000000E+00  0.00000000E+00  1.00000000E+00  0.00000000E+00  0.00000000E+00
  0.00000000E+00  0.00000000E+00  0.00000000E+00  0.00000000E+00  2.54113776E-01
  0.00000000E+00  0.00000000E+00  0.00000000E+00  3.72149011E-01  0.00000000E+00
  0.00000000E+00  0.00000000E+00  3.90572601E-01  0.00000000E+00  0.00000000E+00
  0.00000000E+00  2.99308236E-01  0.00000000E+00  0.00000000E+00  0.00000000E+00
  0.00000000E+00  0.00000000E+00  0.00000000E+00  0.00000000E+00  0.00000000E+00
  0.00000000E+00  6.04158525E-01  0.00000000E+00  0.00000000E+00  0.00000000E+00
  3.26994324E-01  0.00000000E+00  0.00000000E+00  0.00000000E+00 -2.97276902E-01