fubar                                                                   
SP        UPBE1PBE                                                    6-311+G(d,p)        
Number of atoms                            I                1
Info1-9                                    I   N=           9
          11          10           0           0           0         110
           1          18       -1302
Full Title                                 C   N=           1
fubar       
Route                                      C   N=           3
#PBE1PBE/6-311+G(d,p) scf=tight     
Charge                                     I               -2
Multiplicity                               I                2
Number of electrons                        I                5
Number of alpha electrons                  I                3
Number of beta electrons                   I                2
Number of basis functions                  I               22
Number of independent functions            I               22
Number of point charges in /Mol/           I                0
Number of translation vectors              I                0
Atomic numbers                             I   N=           1
           3
Nuclear charges                            R   N=           1
  3.00000000E+00
Current cartesian coordinates              R   N=           3
  0.00000000E+00  0.00000000E+00  0.00000000E+00
Number of symbols in /Mol/                 I                0
Int Atom Types                             I   N=           1
           0
Force Field                                I                0
Atom Types                                 C   N=           1
            
MM charges                                 R   N=           1
  0.00000000E+00
Integer atomic weights                     I   N=           1
           7
Real atomic weights                        R   N=           1
  7.01600450E+00
Atom fragment info                         I   N=           1
           0
Atom residue num                           I   N=           1
           0
Nuclear spins                              I   N=           1
           3
Nuclear ZEff                               R   N=           1
 -1.35000000E+00
Nuclear ZNuc                               R   N=           1
  3.00000000E+00
Nuclear QMom                               R   N=           1
 -4.01000000E+00
Nuclear GFac                               R   N=           1
  3.25642400E+00
MicOpt                                     I   N=           1
          -1
Number of residues                         I                0
Number of secondary structures             I                0
SymInf integers                            I   N=          26
           1           8           1           1           1           1
          -1          -1          -1           1          -1          -1
          -1           1          -1          -1          -1          -1
           1           1           1          -1           1           1
           1          -1
RotTr to input orientation                 R   N=          12
  0.00000000E+00  0.00000000E+00 -1.00000000E+00  0.00000000E+00  1.00000000E+00
  0.00000000E+00  1.00000000E+00  0.00000000E+00  0.00000000E+00  0.00000000E+00
  0.00000000E+00  0.00000000E+00
Number of contracted shells                I                6
Number of primitive shells                 I               13
Pure/Cartesian d shells                    I                0
Pure/Cartesian f shells                    I                0
Highest angular momentum                   I                2
Largest degree of contraction              I                6
Shell types                                I   N=           6
           0          -1          -1          -1          -1          -2
Number of primitives per shell             I   N=           6
           6           3           1           1           1           1
Shell to atom map                          I   N=           6
           1           1           1           1           1           1
Primitive exponents                        R   N=          13
  9.00460000E+02  1.34433000E+02  3.04365000E+01  8.62639000E+00  2.48332000E+00
  3.03179000E-01  4.86890000E+00  8.56924000E-01  2.43227000E-01  6.35070000E-02
  2.43683000E-02  7.40000000E-03  2.00000000E-01
Contraction coefficients                   R   N=          13
  2.28704037E-03  1.76350029E-02  8.73434143E-02  2.80977046E-01  6.58741108E-01
  1.18712019E-01  9.33292995E-02  9.43044995E-01 -2.79826999E-03  1.00000000E+00
  1.00000000E+00  1.00000000E+00  1.00000000E+00
P(S=P) Contraction coefficients            R   N=          13
  0.00000000E+00  0.00000000E+00  0.00000000E+00  0.00000000E+00  0.00000000E+00
  0.00000000E+00  3.27660966E-02  1.59791983E-01  8.85666908E-01  1.00000000E+00
  1.00000000E+00  1.00000000E+00  0.00000000E+00
Coordinates of each shell                  R   N=          18
  0.00000000E+00  0.00000000E+00  0.00000000E+00  0.00000000E+00  0.00000000E+00
  0.00000000E+00  0.00000000E+00  0.00000000E+00  0.00000000E+00  0.00000000E+00
  0.00000000E+00  0.00000000E+00  0.00000000E+00  0.00000000E+00  0.00000000E+00
  0.00000000E+00  0.00000000E+00  0.00000000E+00
Num ILSW                                   I              100
ILSW                                       I   N=         100
           1           0           0           0           2           0
           0           0           0           0        1009          -1
           5           0           0           0           0           0
           0           0           0           0           0           0
           1           0           0           0           0           0
           0           0      100000           0          -1           0
           0           0           0           0           0           0
           0           0           0           1           0           0
           0 -2000000000           1           0           0           0
           0           1           4          52           0           0
           0           0          13           0           0           0
           0           0           0           1           0           1
           0           0           0           0           0           0
           0           0           0           0           0           0
           0           0           0           0           0           0
           0           0           0           0           0           0
           0           0           0           0
Num RLSW                                   I               52
RLSW                                       R   N=          52
  7.50000000E-01  7.50000000E-01  1.00000000E+00  1.00000000E+00  2.50000000E-01
  0.00000000E+00  0.00000000E+00  1.00000000E+00  0.00000000E+00  0.00000000E+00
  0.00000000E+00  0.00000000E+00  1.00000000E+00  0.00000000E+00  0.00000000E+00
  0.00000000E+00  0.00000000E+00  1.00000000E+00  0.00000000E+00  0.00000000E+00
  0.00000000E+00  0.00000000E+00  1.00000000E+00  0.00000000E+00  0.00000000E+00
  0.00000000E+00  0.00000000E+00  1.00000000E+00  0.00000000E+00  0.00000000E+00
  0.00000000E+00  0.00000000E+00  1.00000000E+00  0.00000000E+00  0.00000000E+00
  0.00000000E+00  0.00000000E+00  0.00000000E+00  1.00000000E+00  1.00000000E+00
  0.00000000E+00  1.00000000E+00  0.00000000E+00  0.00000000E+00  0.00000000E+00
  0.00000000E+00  0.00000000E+00  0.00000000E+00  0.00000000E+00  0.00000000E+00
  0.00000000E+00  0.00000000E+00
MxBond                                     I                1
NBond                                      I   N=           1
           0
IBond                                      I   N=           1
           0
RBond                                      R   N=           1
  0.00000000E+00
Virial Ratio                               R      1.993573258637793E+00
SCF Energy                                 R     -7.392328120900444E+00
Total Energy                               R     -7.392328120900444E+00
S**2                                       R      8.359640786175435E-01
S**2 after annihilation                    R      7.500000863321238E-01
RMS Density                                R      7.985985289403015E-09
Job Status                                 I                1
Nuclear derivative order                   I                0
External E-field                           R   N=          35
  0.00000000E+00  0.00000000E+00  0.00000000E+00  0.00000000E+00  0.00000000E+00
  0.00000000E+00  0.00000000E+00  0.00000000E+00  0.00000000E+00  0.00000000E+00
  0.00000000E+00  0.00000000E+00  0.00000000E+00  0.00000000E+00  0.00000000E+00
  0.00000000E+00  0.00000000E+00  0.00000000E+00  0.00000000E+00  0.00000000E+00
  0.00000000E+00  0.00000000E+00  0.00000000E+00  0.00000000E+00  0.00000000E+00
  0.00000000E+00  0.00000000E+00  0.00000000E+00  0.00000000E+00  0.00000000E+00
  0.00000000E+00  0.00000000E+00  0.00000000E+00  0.00000000E+00  0.00000000E+00
IOpCl                                      I                1
IROHF                                      I                0
Alpha Orbital Energies                     R   N=          22
 -1.88222980E+00  2.40807141E-02  8.87821435E-02  1.06523753E-01  1.06523753E-01
  1.12209766E-01  1.32930281E-01  1.35161237E-01  1.35161237E-01  2.29644259E-01
  2.31713224E-01  2.32275279E-01  2.32275279E-01  6.00386690E-01  6.00386694E-01
  6.01218141E-01  6.01218141E-01  6.01745345E-01  6.01745345E-01  6.01836462E-01
  6.02336448E-01  3.69201827E+00
Beta Orbital Energies                      R   N=          22
 -1.87244690E+00  9.06437973E-02  1.02404671E-01  1.08814690E-01  1.08814690E-01
  1.29016585E-01  1.69110334E-01  1.76722825E-01  1.76722825E-01  2.51645372E-01
  2.55724476E-01  2.60354750E-01  2.60354750E-01  6.19801444E-01  6.24391075E-01
  6.24391075E-01  6.35240349E-01  6.36999232E-01  6.36999232E-01  6.45262267E-01
  6.45293344E-01  3.70983911E+00
Alpha MO coefficients                      R   N=         484
  6.16843758E-01  4.26794953E-01  0.00000000E+00  0.00000000E+00  0.00000000E+00
  1.55453517E-02  0.00000000E+00  0.00000000E+00  0.00000000E+00 -1.13498266E-02
  0.00000000E+00  0.00000000E+00  0.00000000E+00  3.45714006E-03  0.00000000E+00
  0.00000000E+00  0.00000000E+00 -2.01027480E-06  0.00000000E+00  0.00000000E+00
 -3.48189709E-06  0.00000000E+00 -1.02294633E-01 -1.57576608E-01  0.00000000E+00
  0.00000000E+00  0.00000000E+00  6.41456493E-01  0.00000000E+00  0.00000000E+00
  0.00000000E+00  3.55995804E-01  0.00000000E+00  0.00000000E+00  0.00000000E+00
  1.12676714E-01  0.00000000E+00  0.00000000E+00  0.00000000E+00  2.82152753E-04
  0.00000000E+00  0.00000000E+00  4.88702916E-04  0.00000000E+00  0.00000000E+00
  0.00000000E+00  0.00000000E+00  4.33198516E-02  0.00000000E+00  0.00000000E+00
  0.00000000E+00  2.67859019E-01  0.00000000E+00  0.00000000E+00  0.00000000E+00
 -2.28844332E-01  0.00000000E+00  0.00000000E+00  0.00000000E+00  1.05103009E+00
  0.00000000E+00  0.00000000E+00  0.00000000E+00  0.00000000E+00  0.00000000E+00
  0.00000000E+00  0.00000000E+00  0.00000000E+00  2.98734263E-02  0.00000000E+00
  0.00000000E+00  0.00000000E+00  2.57725908E-01  0.00000000E+00  0.00000000E+00
  0.00000000E+00 -3.16117907E-01  0.00000000E+00  0.00000000E+00  0.00000000E+00
  1.11506109E+00  0.00000000E+00  0.00000000E+00  0.00000000E+00  0.00000000E+00
  0.00000000E+00  0.00000000E+00  0.00000000E+00  0.00000000E+00  0.00000000E+00
  0.00000000E+00  0.00000000E+00  2.98734263E-02  0.00000000E+00  0.00000000E+00
  0.00000000E+00  2.57725908E-01  0.00000000E+00  0.00000000E+00  0.00000000E+00
 -3.16117907E-01  0.00000000E+00  0.00000000E+00  0.00000000E+00  1.11506109E+00
  0.00000000E+00  0.00000000E+00  0.00000000E+00  0.00000000E+00  0.00000000E+00
  2.79877814E-02  3.55239781E-02  0.00000000E+00  0.00000000E+00  0.00000000E+00
  8.47366158E-02  0.00000000E+00  0.00000000E+00  0.00000000E+00 -1.24799586E+00
  0.00000000E+00  0.00000000E+00  0.00000000E+00  1.62426905E+00  0.00000000E+00
  0.00000000E+00  0.00000000E+00 -5.81821824E-04  0.00000000E+00  0.00000000E+00
 -1.00774496E-03  0.00000000E+00  0.00000000E+00  0.00000000E+00  0.00000000E+00
  1.57174830E-01  0.00000000E+00  0.00000000E+00  0.00000000E+00  2.22073350E-01
  0.00000000E+00  0.00000000E+00  0.00000000E+00  1.00384021E+00  0.00000000E+00
  0.00000000E+00  0.00000000E+00 -8.19136505E-01  0.00000000E+00  0.00000000E+00
  0.00000000E+00  0.00000000E+00  0.00000000E+00  0.00000000E+00  0.00000000E+00
  0.00000000E+00  1.56817490E-01  0.00000000E+00  0.00000000E+00  0.00000000E+00
  2.49962870E-01  0.00000000E+00  0.00000000E+00  0.00000000E+00  9.75942424E-01
  0.00000000E+00  0.00000000E+00  0.00000000E+00 -7.31903341E-01  0.00000000E+00
  0.00000000E+00  0.00000000E+00  0.00000000E+00  0.00000000E+00  0.00000000E+00
  0.00000000E+00  0.00000000E+00  0.00000000E+00  0.00000000E+00  0.00000000E+00
  1.56817490E-01  0.00000000E+00  0.00000000E+00  0.00000000E+00  2.49962870E-01
  0.00000000E+00  0.00000000E+00  0.00000000E+00  9.75942424E-01  0.00000000E+00
  0.00000000E+00  0.00000000E+00 -7.31903341E-01  0.00000000E+00  0.00000000E+00
  0.00000000E+00  0.00000000E+00  0.00000000E+00  1.01384714E-01  1.95712113E-01
  0.00000000E+00  0.00000000E+00  0.00000000E+00 -2.28651775E+00  0.00000000E+00
  0.00000000E+00  0.00000000E+00  2.91779649E+00  0.00000000E+00  0.00000000E+00
  0.00000000E+00 -9.79427371E-01  0.00000000E+00  0.00000000E+00  0.00000000E+00
 -7.87033081E-04  0.00000000E+00  0.00000000E+00 -1.36318129E-03  0.00000000E+00
  0.00000000E+00  0.00000000E+00  0.00000000E+00 -1.51847414E-01  0.00000000E+00
  0.00000000E+00  0.00000000E+00 -1.45034610E+00  0.00000000E+00  0.00000000E+00
  0.00000000E+00  1.82689416E+00  0.00000000E+00  0.00000000E+00  0.00000000E+00
 -5.96266199E-01  0.00000000E+00  0.00000000E+00  0.00000000E+00  0.00000000E+00
  0.00000000E+00  0.00000000E+00  0.00000000E+00  0.00000000E+00 -1.51375372E-01
  0.00000000E+00  0.00000000E+00  0.00000000E+00 -1.44867703E+00  0.00000000E+00
  0.00000000E+00  0.00000000E+00  1.82774682E+00  0.00000000E+00  0.00000000E+00
  0.00000000E+00 -5.93111178E-01  0.00000000E+00  0.00000000E+00  0.00000000E+00
  0.00000000E+00  0.00000000E+00  0.00000000E+00  0.00000000E+00  0.00000000E+00
  0.00000000E+00  0.00000000E+00  0.00000000E+00 -1.51375372E-01  0.00000000E+00
  0.00000000E+00  0.00000000E+00 -1.44867703E+00  0.00000000E+00  0.00000000E+00
  0.00000000E+00  1.82774682E+00  0.00000000E+00  0.00000000E+00  0.00000000E+00
 -5.93111178E-01  0.00000000E+00  0.00000000E+00  0.00000000E+00  0.00000000E+00
  0.00000000E+00 -1.79437798E-12 -1.97820388E-13  0.00000000E+00  0.00000000E+00
  0.00000000E+00  1.07495151E-11  0.00000000E+00  0.00000000E+00  0.00000000E+00
 -5.57475571E-12  0.00000000E+00  0.00000000E+00  0.00000000E+00  2.45265576E-12
  0.00000000E+00  0.00000000E+00  0.00000000E+00  8.66025403E-01  0.00000000E+00
  0.00000000E+00 -5.00000001E-01  0.00000000E+00  0.00000000E+00  0.00000000E+00
  0.00000000E+00  0.00000000E+00  0.00000000E+00  0.00000000E+00  0.00000000E+00
  0.00000000E+00  0.00000000E+00  0.00000000E+00  0.00000000E+00  0.00000000E+00
  0.00000000E+00  0.00000000E+00  0.00000000E+00  0.00000000E+00  0.00000000E+00
  0.00000000E+00  1.00000000E+00  0.00000000E+00  0.00000000E+00  0.00000000E+00
  0.00000000E+00  0.00000000E+00  0.00000000E+00  0.00000000E+00  0.00000000E+00
  0.00000000E+00  0.00000000E+00  0.00000000E+00  0.00000000E+00  0.00000000E+00
  0.00000000E+00  0.00000000E+00  0.00000000E+00  0.00000000E+00  0.00000000E+00
  0.00000000E+00  0.00000000E+00  0.00000000E+00  0.00000000E+00  0.00000000E+00
  0.00000000E+00  1.00000000E+00  0.00000000E+00  0.00000000E+00  0.00000000E+00
  0.00000000E+00  0.00000000E+00  0.00000000E+00  0.00000000E+00  0.00000000E+00
  0.00000000E+00  0.00000000E+00  0.00000000E+00  0.00000000E+00  0.00000000E+00
  0.00000000E+00  0.00000000E+00  0.00000000E+00  0.00000000E+00  0.00000000E+00
  0.00000000E+00  1.00000000E+00  0.00000000E+00  0.00000000E+00  0.00000000E+00
  0.00000000E+00 -1.27999298E+00  0.00000000E+00  0.00000000E+00  0.00000000E+00
  1.50396078E+00  0.00000000E+00  0.00000000E+00  0.00000000E+00 -9.50295440E-01
  0.00000000E+00  0.00000000E+00  0.00000000E+00  2.64739838E-01  0.00000000E+00
  0.00000000E+00  0.00000000E+00  0.00000000E+00  0.00000000E+00  0.00000000E+00
  0.00000000E+00  0.00000000E+00  0.00000000E+00  0.00000000E+00  0.00000000E+00
 -1.27999298E+00  0.00000000E+00  0.00000000E+00  0.00000000E+00  1.50396078E+00
  0.00000000E+00  0.00000000E+00  0.00000000E+00 -9.50295440E-01  0.00000000E+00
  0.00000000E+00  0.00000000E+00  2.64739838E-01  0.00000000E+00  0.00000000E+00
  0.00000000E+00  0.00000000E+00  0.00000000E+00  3.60906920E-04  3.20410910E-04
  0.00000000E+00  0.00000000E+00  0.00000000E+00 -3.82474960E-03  0.00000000E+00
  0.00000000E+00  0.00000000E+00  2.90857241E-03  0.00000000E+00  0.00000000E+00
  0.00000000E+00  2.94366386E-04  0.00000000E+00  0.00000000E+00  0.00000000E+00
  4.99998962E-01  0.00000000E+00  0.00000000E+00  8.66023604E-01  0.00000000E+00
  0.00000000E+00  0.00000000E+00  0.00000000E+00 -1.27950869E+00  0.00000000E+00
  0.00000000E+00  0.00000000E+00  1.50495794E+00  0.00000000E+00  0.00000000E+00
  0.00000000E+00 -9.47896014E-01  0.00000000E+00  0.00000000E+00  0.00000000E+00
  2.64063516E-01  0.00000000E+00  0.00000000E+00  0.00000000E+00  0.00000000E+00
  0.00000000E+00  0.00000000E+00 -1.65246381E+00  1.82116311E+00  0.00000000E+00
  0.00000000E+00  0.00000000E+00 -5.73931551E-01  0.00000000E+00  0.00000000E+00
  0.00000000E+00  4.73145854E-01  0.00000000E+00  0.00000000E+00  0.00000000E+00
 -1.45370936E-01  0.00000000E+00  0.00000000E+00  0.00000000E+00  3.28438783E-05
  0.00000000E+00  0.00000000E+00  5.68872671E-05  0.00000000E+00
Beta MO coefficients                       R   N=         484
  6.15818695E-01  4.27805551E-01  0.00000000E+00  0.00000000E+00  0.00000000E+00
  1.59157892E-02  0.00000000E+00  0.00000000E+00  0.00000000E+00 -1.18048622E-02
  0.00000000E+00  0.00000000E+00  0.00000000E+00  3.59707496E-03  0.00000000E+00
  0.00000000E+00  0.00000000E+00 -3.03410737E-05  0.00000000E+00  0.00000000E+00
 -5.25522818E-05  0.00000000E+00  0.00000000E+00  0.00000000E+00  0.00000000E+00
 -5.83059222E-04  0.00000000E+00  0.00000000E+00  0.00000000E+00  1.75262287E-01
  0.00000000E+00  0.00000000E+00  0.00000000E+00 -4.96950505E-01  0.00000000E+00
  0.00000000E+00  0.00000000E+00  1.23986242E+00  0.00000000E+00  0.00000000E+00
  0.00000000E+00  0.00000000E+00  0.00000000E+00  0.00000000E+00 -4.90761770E-02
 -7.91860314E-02  0.00000000E+00  0.00000000E+00  0.00000000E+00  4.99748615E-01
  0.00000000E+00  0.00000000E+00  0.00000000E+00 -6.93674885E-01  0.00000000E+00
  0.00000000E+00  0.00000000E+00  1.28185889E+00  0.00000000E+00  0.00000000E+00
  0.00000000E+00 -3.47392794E-03  0.00000000E+00  0.00000000E+00 -6.01701972E-03
  0.00000000E+00  0.00000000E+00  0.00000000E+00  0.00000000E+00  0.00000000E+00
 -4.93374183E-03  0.00000000E+00  0.00000000E+00  0.00000000E+00  1.77582897E-01
  0.00000000E+00  0.00000000E+00  0.00000000E+00 -5.34064379E-01  0.00000000E+00
  0.00000000E+00  0.00000000E+00  1.25665297E+00  0.00000000E+00  0.00000000E+00
  0.00000000E+00  0.00000000E+00  0.00000000E+00  0.00000000E+00  0.00000000E+00
 -4.93374183E-03  0.00000000E+00  0.00000000E+00  0.00000000E+00  1.77582897E-01
  0.00000000E+00  0.00000000E+00  0.00000000E+00 -5.34064379E-01  0.00000000E+00
  0.00000000E+00  0.00000000E+00  1.25665297E+00  0.00000000E+00  0.00000000E+00
  0.00000000E+00  0.00000000E+00  0.00000000E+00  0.00000000E+00  0.00000000E+00
 -8.88841281E-02 -1.23843506E-01  0.00000000E+00  0.00000000E+00  0.00000000E+00
  2.49318972E-01  0.00000000E+00  0.00000000E+00  0.00000000E+00  1.31279023E+00
  0.00000000E+00  0.00000000E+00  0.00000000E+00 -1.07618729E+00  0.00000000E+00
  0.00000000E+00  0.00000000E+00 -6.40159039E-03  0.00000000E+00  0.00000000E+00
 -1.10878798E-02  0.00000000E+00  0.00000000E+00  0.00000000E+00  0.00000000E+00
  1.74658661E-01  0.00000000E+00  0.00000000E+00  0.00000000E+00  1.94709335E-02
  0.00000000E+00  0.00000000E+00  0.00000000E+00  1.19166774E+00  0.00000000E+00
  0.00000000E+00  0.00000000E+00 -5.70335874E-01  0.00000000E+00  0.00000000E+00
  0.00000000E+00  0.00000000E+00  0.00000000E+00  0.00000000E+00  0.00000000E+00
  0.00000000E+00  0.00000000E+00  0.00000000E+00  1.75433684E-01  0.00000000E+00
  0.00000000E+00  0.00000000E+00 -3.70430307E-02  0.00000000E+00  0.00000000E+00
  0.00000000E+00  1.24122963E+00  0.00000000E+00  0.00000000E+00  0.00000000E+00
 -5.54624419E-01  0.00000000E+00  0.00000000E+00  0.00000000E+00  0.00000000E+00
  0.00000000E+00  0.00000000E+00  0.00000000E+00  1.75433684E-01  0.00000000E+00
  0.00000000E+00  0.00000000E+00 -3.70430308E-02  0.00000000E+00  0.00000000E+00
  0.00000000E+00  1.24122963E+00  0.00000000E+00  0.00000000E+00  0.00000000E+00
 -5.54624419E-01  0.00000000E+00  0.00000000E+00  0.00000000E+00  0.00000000E+00
  0.00000000E+00  0.00000000E+00  0.00000000E+00  0.00000000E+00  0.00000000E+00
  0.00000000E+00 -1.87922086E-01  0.00000000E+00  0.00000000E+00  0.00000000E+00
 -1.46392235E+00  0.00000000E+00  0.00000000E+00  0.00000000E+00  1.66125759E+00
  0.00000000E+00  0.00000000E+00  0.00000000E+00 -5.21456651E-01  0.00000000E+00
  0.00000000E+00  0.00000000E+00  0.00000000E+00  0.00000000E+00  0.00000000E+00
  1.08510440E-01  2.04856315E-01  0.00000000E+00  0.00000000E+00  0.00000000E+00
 -2.30930671E+00  0.00000000E+00  0.00000000E+00  0.00000000E+00  2.82726257E+00
  0.00000000E+00  0.00000000E+00  0.00000000E+00 -8.99435630E-01  0.00000000E+00
  0.00000000E+00  0.00000000E+00  4.13667409E-03  0.00000000E+00  0.00000000E+00
  7.16492972E-03  0.00000000E+00  0.00000000E+00  0.00000000E+00  0.00000000E+00
  0.00000000E+00 -2.08085302E-01  0.00000000E+00  0.00000000E+00  0.00000000E+00
 -1.44658818E+00  0.00000000E+00  0.00000000E+00  0.00000000E+00  1.60668117E+00
  0.00000000E+00  0.00000000E+00  0.00000000E+00 -4.96443515E-01  0.00000000E+00
  0.00000000E+00  0.00000000E+00  0.00000000E+00  0.00000000E+00  0.00000000E+00
  0.00000000E+00 -2.08085302E-01  0.00000000E+00  0.00000000E+00  0.00000000E+00
 -1.44658818E+00  0.00000000E+00  0.00000000E+00  0.00000000E+00  1.60668117E+00
  0.00000000E+00  0.00000000E+00  0.00000000E+00 -4.96443515E-01  0.00000000E+00
  0.00000000E+00  0.00000000E+00  0.00000000E+00  0.00000000E+00  0.00000000E+00
  0.00000000E+00  0.00000000E+00  0.00000000E+00  0.00000000E+00 -1.27316926E+00
  0.00000000E+00  0.00000000E+00  0.00000000E+00  1.52161184E+00  0.00000000E+00
  0.00000000E+00  0.00000000E+00 -9.32365502E-01  0.00000000E+00  0.00000000E+00
  0.00000000E+00  2.57784629E-01  0.00000000E+00  0.00000000E+00  0.00000000E+00
  0.00000000E+00  0.00000000E+00  0.00000000E+00  0.00000000E+00  0.00000000E+00
  0.00000000E+00  0.00000000E+00 -1.26991333E+00  0.00000000E+00  0.00000000E+00
  0.00000000E+00  1.53751163E+00  0.00000000E+00  0.00000000E+00  0.00000000E+00
 -9.42769273E-01  0.00000000E+00  0.00000000E+00  0.00000000E+00  2.60135904E-01
  0.00000000E+00  0.00000000E+00  0.00000000E+00  0.00000000E+00  0.00000000E+00
  0.00000000E+00  0.00000000E+00 -1.26991333E+00  0.00000000E+00  0.00000000E+00
  0.00000000E+00  1.53751163E+00  0.00000000E+00  0.00000000E+00  0.00000000E+00
 -9.42769273E-01  0.00000000E+00  0.00000000E+00  0.00000000E+00  2.60135904E-01
  0.00000000E+00  0.00000000E+00  0.00000000E+00  0.00000000E+00  0.00000000E+00
  0.00000000E+00  0.00000000E+00 -3.68531162E-03 -2.32237697E-03  0.00000000E+00
  0.00000000E+00  0.00000000E+00  2.53062745E-02  0.00000000E+00  0.00000000E+00
  0.00000000E+00 -1.10199924E-02  0.00000000E+00  0.00000000E+00  0.00000000E+00
  2.45141566E-03  0.00000000E+00  0.00000000E+00  0.00000000E+00  4.99929668E-01
  0.00000000E+00  0.00000000E+00  8.65903585E-01  0.00000000E+00  0.00000000E+00
  0.00000000E+00  0.00000000E+00  0.00000000E+00  0.00000000E+00  0.00000000E+00
  0.00000000E+00  0.00000000E+00  0.00000000E+00  0.00000000E+00  0.00000000E+00
  0.00000000E+00  0.00000000E+00  0.00000000E+00  0.00000000E+00  0.00000000E+00
  0.00000000E+00  0.00000000E+00  0.00000000E+00  1.00000000E+00  0.00000000E+00
  0.00000000E+00  0.00000000E+00  0.00000000E+00  0.00000000E+00  0.00000000E+00
  0.00000000E+00  0.00000000E+00  0.00000000E+00  0.00000000E+00  0.00000000E+00
  0.00000000E+00  0.00000000E+00  0.00000000E+00  0.00000000E+00  0.00000000E+00
  0.00000000E+00  0.00000000E+00  0.00000000E+00  0.00000000E+00  0.00000000E+00
  0.00000000E+00  0.00000000E+00  1.00000000E+00  6.96530234E-12  4.70799452E-12
  0.00000000E+00  0.00000000E+00  0.00000000E+00 -4.95698759E-11  0.00000000E+00
  0.00000000E+00  0.00000000E+00  2.02046251E-11  0.00000000E+00  0.00000000E+00
  0.00000000E+00 -3.87761904E-12  0.00000000E+00  0.00000000E+00  0.00000000E+00
  8.66025403E-01  0.00000000E+00  0.00000000E+00 -5.00000001E-01  0.00000000E+00
  0.00000000E+00  0.00000000E+00  0.00000000E+00  0.00000000E+00  0.00000000E+00
  0.00000000E+00  0.00000000E+00  0.00000000E+00  0.00000000E+00  0.00000000E+00
  0.00000000E+00  0.00000000E+00  0.00000000E+00  0.00000000E+00  0.00000000E+00
  0.00000000E+00  0.00000000E+00  0.00000000E+00  1.00000000E+00  0.00000000E+00
  0.00000000E+00  0.00000000E+00 -1.65267352E+00  1.82115017E+00  0.00000000E+00
  0.00000000E+00  0.00000000E+00 -5.75120873E-01  0.00000000E+00  0.00000000E+00
  0.00000000E+00  4.72747160E-01  0.00000000E+00  0.00000000E+00  0.00000000E+00
 -1.44996661E-01  0.00000000E+00  0.00000000E+00  0.00000000E+00 -4.07050756E-04
  0.00000000E+00  0.00000000E+00 -7.05032592E-04  0.00000000E+00
Orthonormal basis                          R   N=         484
  1.84076548E-01  2.14623396E-01  0.00000000E+00  0.00000000E+00  0.00000000E+00
  3.29791692E-01  0.00000000E+00  0.00000000E+00  0.00000000E+00  3.41076958E-01
  0.00000000E+00  0.00000000E+00  0.00000000E+00  2.76009801E-01  0.00000000E+00
  0.00000000E+00  0.00000000E+00  7.34018349E-18  0.00000000E+00  0.00000000E+00
  0.00000000E+00  0.00000000E+00  4.93533804E-01  4.68045001E-01  0.00000000E+00
  0.00000000E+00  0.00000000E+00 -1.01645313E-01  0.00000000E+00  0.00000000E+00
  0.00000000E+00 -2.42001301E-01  0.00000000E+00  0.00000000E+00  0.00000000E+00
 -2.72593794E-01  0.00000000E+00  0.00000000E+00  0.00000000E+00  3.98856870E-17
  0.00000000E+00  0.00000000E+00  0.00000000E+00  0.00000000E+00 -6.80864130E-17
 -1.01262339E-18  0.00000000E+00  0.00000000E+00  0.00000000E+00 -4.27154151E-18
  0.00000000E+00  0.00000000E+00  0.00000000E+00  5.66373593E-18  0.00000000E+00
  0.00000000E+00  0.00000000E+00  1.78360335E-17  0.00000000E+00  0.00000000E+00
  0.00000000E+00  1.00000000E+00  0.00000000E+00  0.00000000E+00  0.00000000E+00
  0.00000000E+00  0.00000000E+00  0.00000000E+00  0.00000000E+00  0.00000000E+00
  0.00000000E+00  0.00000000E+00  0.00000000E+00  0.00000000E+00  0.00000000E+00
  0.00000000E+00  0.00000000E+00  0.00000000E+00  0.00000000E+00  0.00000000E+00
  0.00000000E+00  0.00000000E+00  0.00000000E+00  0.00000000E+00  0.00000000E+00
  0.00000000E+00  1.00000000E+00  0.00000000E+00  3.18966190E-01  1.12146740E-03
  0.00000000E+00  0.00000000E+00  0.00000000E+00 -9.13955465E-01  0.00000000E+00
  0.00000000E+00  0.00000000E+00 -1.20031764E-01  0.00000000E+00  0.00000000E+00
  0.00000000E+00  1.02677549E+00  0.00000000E+00  0.00000000E+00  0.00000000E+00
 -1.49185685E-18  0.00000000E+00  0.00000000E+00  0.00000000E+00  0.00000000E+00
 -1.62002795E+00  1.69495660E+00  0.00000000E+00  0.00000000E+00  0.00000000E+00
 -8.62373782E-02  0.00000000E+00  0.00000000E+00  0.00000000E+00 -4.13384779E-01
  0.00000000E+00  0.00000000E+00  0.00000000E+00  3.76320704E-01  0.00000000E+00
  0.00000000E+00  0.00000000E+00 -1.13697472E-16  0.00000000E+00  0.00000000E+00
  0.00000000E+00  0.00000000E+00 -3.59123377E-01  6.52055367E-01  0.00000000E+00
  0.00000000E+00  0.00000000E+00 -2.23933428E+00  0.00000000E+00  0.00000000E+00
  0.00000000E+00  3.17199852E+00  0.00000000E+00  0.00000000E+00  0.00000000E+00
 -1.51161991E+00  0.00000000E+00  0.00000000E+00  0.00000000E+00 -2.42240217E-17
  0.00000000E+00  0.00000000E+00  0.00000000E+00  0.00000000E+00  0.00000000E+00
  0.00000000E+00  0.00000000E+00  0.00000000E+00  0.00000000E+00  0.00000000E+00
  0.00000000E+00  0.00000000E+00  0.00000000E+00  0.00000000E+00  0.00000000E+00
  0.00000000E+00  0.00000000E+00  0.00000000E+00  0.00000000E+00  0.00000000E+00
  0.00000000E+00  0.00000000E+00  0.00000000E+00  0.00000000E+00  0.00000000E+00
  1.00000000E+00  0.00000000E+00  0.00000000E+00  0.00000000E+00  0.00000000E+00
  0.00000000E+00  0.00000000E+00  0.00000000E+00  0.00000000E+00  0.00000000E+00
  0.00000000E+00  0.00000000E+00  0.00000000E+00  0.00000000E+00  0.00000000E+00
  0.00000000E+00  0.00000000E+00  0.00000000E+00  0.00000000E+00  1.00000000E+00
  0.00000000E+00  0.00000000E+00  0.00000000E+00  0.00000000E+00  0.00000000E+00
  0.00000000E+00  0.00000000E+00  0.00000000E+00  0.00000000E+00  0.00000000E+00
  0.00000000E+00  0.00000000E+00  0.00000000E+00  0.00000000E+00  0.00000000E+00
  0.00000000E+00  0.00000000E+00  0.00000000E+00  0.00000000E+00  0.00000000E+00
  0.00000000E+00  0.00000000E+00  1.00000000E+00  0.00000000E+00  0.00000000E+00
  0.00000000E+00  0.00000000E+00  0.00000000E+00  0.00000000E+00  2.33885646E-01
  0.00000000E+00  0.00000000E+00  0.00000000E+00  3.75450243E-01  0.00000000E+00
  0.00000000E+00  0.00000000E+00  3.88510353E-01  0.00000000E+00  0.00000000E+00
  0.00000000E+00  2.81315845E-01  0.00000000E+00  0.00000000E+00  0.00000000E+00
  0.00000000E+00  0.00000000E+00  0.00000000E+00  0.00000000E+00  0.00000000E+00
  0.00000000E+00  6.82102789E-01  0.00000000E+00  0.00000000E+00  0.00000000E+00
  2.63967830E-01  0.00000000E+00  0.00000000E+00  0.00000000E+00 -2.49077896E-01