fubar                                                                   
SP        RPBE1PBE                                                    6-311+G(d,p)        
Number of atoms                            I                1
Info1-9                                    I   N=           9
          11          10           0           0           0         110
           1          18       -1302
Full Title                                 C   N=           1
fubar       
Route                                      C   N=           3
#PBE1PBE/6-311+G(d,p) scf=tight     
Charge                                     I                2
Multiplicity                               I                1
Number of electrons                        I               12
Number of alpha electrons                  I                6
Number of beta electrons                   I                6
Number of basis functions                  I               30
Number of independent functions            I               30
Number of point charges in /Mol/           I                0
Number of translation vectors              I                0
Atomic numbers                             I   N=           1
          14
Nuclear charges                            R   N=           1
  1.40000000E+01
Current cartesian coordinates              R   N=           3
  0.00000000E+00  0.00000000E+00  0.00000000E+00
Number of symbols in /Mol/                 I                0
Int Atom Types                             I   N=           1
           0
Force Field                                I                0
Atom Types                                 C   N=           1
            
MM charges                                 R   N=           1
  0.00000000E+00
Integer atomic weights                     I   N=           1
          28
Real atomic weights                        R   N=           1
  2.79769284E+01
Atom fragment info                         I   N=           1
           0
Atom residue num                           I   N=           1
           0
Nuclear spins                              I   N=           1
           0
Nuclear ZEff                               R   N=           1
 -1.22500000E+01
Nuclear ZNuc                               R   N=           1
  1.40000000E+01
Nuclear QMom                               R   N=           1
  0.00000000E+00
Nuclear GFac                               R   N=           1
  0.00000000E+00
MicOpt                                     I   N=           1
          -1
Number of residues                         I                0
Number of secondary structures             I                0
SymInf integers                            I   N=          26
           1           8           1           1           1           1
          -1          -1          -1           1          -1          -1
          -1           1          -1          -1          -1          -1
           1           1           1          -1           1           1
           1          -1
RotTr to input orientation                 R   N=          12
  0.00000000E+00  0.00000000E+00 -1.00000000E+00  0.00000000E+00  1.00000000E+00
  0.00000000E+00  1.00000000E+00  0.00000000E+00  0.00000000E+00  0.00000000E+00
  0.00000000E+00  0.00000000E+00
Number of contracted shells                I               13
Number of primitive shells                 I               24
Pure/Cartesian d shells                    I                0
Pure/Cartesian f shells                    I                0
Highest angular momentum                   I                2
Largest degree of contraction              I                6
Shell types                                I   N=          13
           0           0           0           0           0           0
          -1           1           1           1           1           1
          -2
Number of primitives per shell             I   N=          13
           6           3           1           1           1           1
           1           4           2           1           1           1
           1
Shell to atom map                          I   N=          13
           1           1           1           1           1           1
           1           1           1           1           1           1
           1
Primitive exponents                        R   N=          24
  6.93792300E+04  1.03549400E+04  2.33387960E+03  6.57142950E+02  2.14301130E+02
  7.76291680E+01  7.76291680E+01  3.06308070E+01  1.28012950E+01  3.92686600E+00
  1.45234300E+00  2.56234000E-01  9.42790000E-02  3.31000000E-02  3.35483190E+02
  7.89003660E+01  2.49881500E+01  9.21971100E+00  3.62114000E+00  1.45131000E+00
  5.04977000E-01  1.86317000E-01  6.54320000E-02  4.50000000E-01
Contraction coefficients                   R   N=          24
  7.57000408E-04  5.93200320E-03  3.10880168E-02  1.24967067E-01  3.86897209E-01
  5.54888299E-01  1.77880945E-01  6.27764806E-01  2.47622924E-01  1.00000000E+00
  1.00000000E+00  1.00000000E+00  1.00000000E+00  1.00000000E+00  8.86599815E-03
  6.82989857E-02  2.90957939E-01  7.32116847E-01  6.19879440E-01  4.39148312E-01
  1.00000000E+00  1.00000000E+00  1.00000000E+00  1.00000000E+00
P(S=P) Contraction coefficients            R   N=          24
  0.00000000E+00  0.00000000E+00  0.00000000E+00  0.00000000E+00  0.00000000E+00
  0.00000000E+00  0.00000000E+00  0.00000000E+00  0.00000000E+00  0.00000000E+00
  0.00000000E+00  0.00000000E+00  0.00000000E+00  1.00000000E+00  0.00000000E+00
  0.00000000E+00  0.00000000E+00  0.00000000E+00  0.00000000E+00  0.00000000E+00
  0.00000000E+00  0.00000000E+00  0.00000000E+00  0.00000000E+00
Coordinates of each shell                  R   N=          39
  0.00000000E+00  0.00000000E+00  0.00000000E+00  0.00000000E+00  0.00000000E+00
  0.00000000E+00  0.00000000E+00  0.00000000E+00  0.00000000E+00  0.00000000E+00
  0.00000000E+00  0.00000000E+00  0.00000000E+00  0.00000000E+00  0.00000000E+00
  0.00000000E+00  0.00000000E+00  0.00000000E+00  0.00000000E+00  0.00000000E+00
  0.00000000E+00  0.00000000E+00  0.00000000E+00  0.00000000E+00  0.00000000E+00
  0.00000000E+00  0.00000000E+00  0.00000000E+00  0.00000000E+00  0.00000000E+00
  0.00000000E+00  0.00000000E+00  0.00000000E+00  0.00000000E+00  0.00000000E+00
  0.00000000E+00  0.00000000E+00  0.00000000E+00  0.00000000E+00
Num ILSW                                   I              100
ILSW                                       I   N=         100
           0           0           0           0           2           0
           0           0           0           0        1009          -1
           5           0           0           0           0           0
           0           0           0           0           0           0
           1           0           0           0           0           0
           0           0      100000           0          -1           0
           0           0           0           0           0           0
           0           0           0           1           0           0
           0 -2000000000           1           0           0           0
           0           0           4          52           0           0
           0           0          13           0           0           0
           0           0           0           1           0           1
           0           0           0           0           0           0
           0           0           0           0           0           0
           0           0           0           0           0           0
           0           0           0           0           0           0
           0           0           0           0
Num RLSW                                   I               52
RLSW                                       R   N=          52
  7.50000000E-01  7.50000000E-01  1.00000000E+00  1.00000000E+00  2.50000000E-01
  0.00000000E+00  0.00000000E+00  1.00000000E+00  0.00000000E+00  0.00000000E+00
  0.00000000E+00  0.00000000E+00  1.00000000E+00  0.00000000E+00  0.00000000E+00
  0.00000000E+00  0.00000000E+00  1.00000000E+00  0.00000000E+00  0.00000000E+00
  0.00000000E+00  0.00000000E+00  1.00000000E+00  0.00000000E+00  0.00000000E+00
  0.00000000E+00  0.00000000E+00  1.00000000E+00  0.00000000E+00  0.00000000E+00
  0.00000000E+00  0.00000000E+00  1.00000000E+00  0.00000000E+00  0.00000000E+00
  0.00000000E+00  0.00000000E+00  0.00000000E+00  1.00000000E+00  1.00000000E+00
  0.00000000E+00  1.00000000E+00  0.00000000E+00  0.00000000E+00  0.00000000E+00
  0.00000000E+00  0.00000000E+00  0.00000000E+00  0.00000000E+00  0.00000000E+00
  0.00000000E+00  0.00000000E+00
MxBond                                     I                1
NBond                                      I   N=           1
           0
IBond                                      I   N=           1
           0
RBond                                      R   N=           1
  0.00000000E+00
Virial Ratio                               R      2.001324701308635E+00
SCF Energy                                 R     -2.883454053993389E+02
Total Energy                               R     -2.883454053993389E+02
RMS Density                                R      1.039106478323587E-09
Job Status                                 I                1
Nuclear derivative order                   I                0
External E-field                           R   N=          35
  0.00000000E+00  0.00000000E+00  0.00000000E+00  0.00000000E+00  0.00000000E+00
  0.00000000E+00  0.00000000E+00  0.00000000E+00  0.00000000E+00  0.00000000E+00
  0.00000000E+00  0.00000000E+00  0.00000000E+00  0.00000000E+00  0.00000000E+00
  0.00000000E+00  0.00000000E+00  0.00000000E+00  0.00000000E+00  0.00000000E+00
  0.00000000E+00  0.00000000E+00  0.00000000E+00  0.00000000E+00  0.00000000E+00
  0.00000000E+00  0.00000000E+00  0.00000000E+00  0.00000000E+00  0.00000000E+00
  0.00000000E+00  0.00000000E+00  0.00000000E+00  0.00000000E+00  0.00000000E+00
IOpCl                                      I                0
IROHF                                      I                0
Alpha Orbital Energies                     R   N=          30
 -6.71024594E+01 -6.15952900E+00 -4.49246957E+00 -4.49246957E+00 -4.49246957E+00
 -1.08875933E+00 -7.12596067E-01 -7.12596067E-01 -7.12596067E-01 -3.37181925E-01
 -2.59463126E-01 -2.59463126E-01 -2.59463126E-01 -8.49529757E-02 -8.49529757E-02
 -8.49529757E-02 -8.45580173E-02 -8.45580173E-02 -8.45580173E-02 -8.45580173E-02
 -8.45580173E-02 -5.55000761E-02  6.23576754E-01  6.23576754E-01  6.23576754E-01
  4.48349481E+00  1.05487470E+01  1.05487470E+01  1.05487470E+01  1.39993727E+02
Alpha MO coefficients                      R   N=         900
  4.17789023E-01  6.46725526E-01  1.34798536E-02 -4.28539395E-03  1.69269718E-03
 -1.16949607E-03  3.84251110E-04  0.00000000E+00  0.00000000E+00  0.00000000E+00
  0.00000000E+00  0.00000000E+00  0.00000000E+00  0.00000000E+00  0.00000000E+00
  0.00000000E+00  0.00000000E+00  0.00000000E+00  0.00000000E+00  0.00000000E+00
  0.00000000E+00  0.00000000E+00  0.00000000E+00  0.00000000E+00  0.00000000E+00
  1.46099537E-16  0.00000000E+00  0.00000000E+00  2.60263601E-16  0.00000000E+00
 -1.17268804E-01 -3.05315092E-01  5.41229744E-01  5.71701037E-01  4.80921204E-02
 -2.31303577E-02  6.88880373E-03  0.00000000E+00  0.00000000E+00  0.00000000E+00
  0.00000000E+00  0.00000000E+00  0.00000000E+00  0.00000000E+00  0.00000000E+00
  0.00000000E+00  0.00000000E+00  0.00000000E+00  0.00000000E+00  0.00000000E+00
  0.00000000E+00  0.00000000E+00  0.00000000E+00  0.00000000E+00  0.00000000E+00
  6.71807671E-16  0.00000000E+00  0.00000000E+00 -1.09518292E-16  0.00000000E+00
  0.00000000E+00  0.00000000E+00  0.00000000E+00  0.00000000E+00  0.00000000E+00
  0.00000000E+00  0.00000000E+00  0.00000000E+00  0.00000000E+00 -1.98608906E-03
  0.00000000E+00  0.00000000E+00  4.03993320E-01  0.00000000E+00  0.00000000E+00
  6.91295839E-01  0.00000000E+00  0.00000000E+00  5.43335333E-02  0.00000000E+00
  0.00000000E+00 -8.32225972E-03  0.00000000E+00  0.00000000E+00  4.51204962E-03
  0.00000000E+00  0.00000000E+00  0.00000000E+00  0.00000000E+00  0.00000000E+00
  0.00000000E+00  0.00000000E+00  0.00000000E+00  0.00000000E+00  0.00000000E+00
  0.00000000E+00  0.00000000E+00 -1.98608906E-03  0.00000000E+00  0.00000000E+00
  4.03993320E-01  0.00000000E+00  0.00000000E+00  6.91295839E-01  0.00000000E+00
  0.00000000E+00  5.43335333E-02  0.00000000E+00  0.00000000E+00 -8.32225972E-03
  0.00000000E+00  0.00000000E+00  4.51204962E-03  0.00000000E+00  0.00000000E+00
  0.00000000E+00  0.00000000E+00  0.00000000E+00  0.00000000E+00  0.00000000E+00
  0.00000000E+00  0.00000000E+00  0.00000000E+00  0.00000000E+00  0.00000000E+00
  0.00000000E+00  0.00000000E+00  0.00000000E+00 -1.98608906E-03  0.00000000E+00
  0.00000000E+00  4.03993320E-01  0.00000000E+00  0.00000000E+00  6.91295839E-01
  0.00000000E+00  0.00000000E+00  5.43335333E-02  0.00000000E+00  0.00000000E+00
 -8.32225972E-03  0.00000000E+00  0.00000000E+00  4.51204962E-03  0.00000000E+00
  0.00000000E+00  0.00000000E+00  0.00000000E+00  0.00000000E+00  0.00000000E+00
  3.62919230E-02  1.00069882E-01 -2.31480749E-01 -3.91463184E-01  9.07194739E-01
  2.93719348E-01 -2.21950495E-02  0.00000000E+00  0.00000000E+00  0.00000000E+00
  0.00000000E+00  0.00000000E+00  0.00000000E+00  0.00000000E+00  0.00000000E+00
  0.00000000E+00  0.00000000E+00  0.00000000E+00  0.00000000E+00  0.00000000E+00
  0.00000000E+00  0.00000000E+00  0.00000000E+00  0.00000000E+00  0.00000000E+00
  5.24060142E-16  0.00000000E+00  0.00000000E+00 -5.92712039E-17  0.00000000E+00
  0.00000000E+00  0.00000000E+00  0.00000000E+00  0.00000000E+00  0.00000000E+00
  0.00000000E+00  0.00000000E+00  0.00000000E+00  0.00000000E+00 -1.40051951E-02
  0.00000000E+00  0.00000000E+00 -1.18684000E-01  0.00000000E+00  0.00000000E+00
 -2.10142719E-01  0.00000000E+00  0.00000000E+00  3.27540113E-01  0.00000000E+00
  0.00000000E+00  6.78680426E-01  0.00000000E+00  0.00000000E+00  1.36835598E-01
  0.00000000E+00  0.00000000E+00  0.00000000E+00  0.00000000E+00  0.00000000E+00
  0.00000000E+00  0.00000000E+00  0.00000000E+00  0.00000000E+00  0.00000000E+00
  0.00000000E+00  0.00000000E+00  0.00000000E+00 -1.40051951E-02  0.00000000E+00
  0.00000000E+00 -1.18684000E-01  0.00000000E+00  0.00000000E+00 -2.10142719E-01
  0.00000000E+00  0.00000000E+00  3.27540113E-01  0.00000000E+00  0.00000000E+00
  6.78680426E-01  0.00000000E+00  0.00000000E+00  1.36835598E-01  0.00000000E+00
  0.00000000E+00  0.00000000E+00  0.00000000E+00  0.00000000E+00  0.00000000E+00
  0.00000000E+00  0.00000000E+00  0.00000000E+00  0.00000000E+00  0.00000000E+00
  0.00000000E+00  0.00000000E+00 -1.40051951E-02  0.00000000E+00  0.00000000E+00
 -1.18684000E-01  0.00000000E+00  0.00000000E+00 -2.10142719E-01  0.00000000E+00
  0.00000000E+00  3.27540113E-01  0.00000000E+00  0.00000000E+00  6.78680426E-01
  0.00000000E+00  0.00000000E+00  1.36835598E-01  0.00000000E+00  0.00000000E+00
  0.00000000E+00  0.00000000E+00  0.00000000E+00  0.00000000E+00  0.00000000E+00
 -1.69610363E-02 -4.67813817E-02  1.08701052E-01  2.24259971E-01 -9.35201150E-01
  1.29983543E-01  1.10757112E+00  0.00000000E+00  0.00000000E+00  0.00000000E+00
  0.00000000E+00  0.00000000E+00  0.00000000E+00  0.00000000E+00  0.00000000E+00
  0.00000000E+00  0.00000000E+00  0.00000000E+00  0.00000000E+00  0.00000000E+00
  0.00000000E+00  0.00000000E+00  0.00000000E+00  0.00000000E+00  0.00000000E+00
  2.58075202E-15  0.00000000E+00  0.00000000E+00 -4.22380681E-15  0.00000000E+00
  0.00000000E+00  0.00000000E+00  0.00000000E+00  0.00000000E+00  0.00000000E+00
  0.00000000E+00  0.00000000E+00  7.61528873E-01  0.00000000E+00  0.00000000E+00
  5.87214358E-02  0.00000000E+00  0.00000000E+00  1.05354344E-01  0.00000000E+00
  0.00000000E+00 -2.22181840E-01  0.00000000E+00  0.00000000E+00 -4.75301942E-01
  0.00000000E+00  0.00000000E+00  4.13400115E-01  0.00000000E+00  0.00000000E+00
  0.00000000E+00  0.00000000E+00  0.00000000E+00  0.00000000E+00  0.00000000E+00
  0.00000000E+00  0.00000000E+00  0.00000000E+00  0.00000000E+00  0.00000000E+00
  0.00000000E+00  0.00000000E+00  0.00000000E+00  7.61528873E-01  0.00000000E+00
  0.00000000E+00  5.87214358E-02  0.00000000E+00  0.00000000E+00  1.05354344E-01
  0.00000000E+00  0.00000000E+00 -2.22181840E-01  0.00000000E+00  0.00000000E+00
 -4.75301942E-01  0.00000000E+00  0.00000000E+00  4.13400115E-01  0.00000000E+00
  0.00000000E+00  0.00000000E+00  0.00000000E+00  0.00000000E+00  0.00000000E+00
  0.00000000E+00  0.00000000E+00  0.00000000E+00  0.00000000E+00  0.00000000E+00
  0.00000000E+00  0.00000000E+00  0.00000000E+00  0.00000000E+00  7.61528873E-01
  0.00000000E+00  0.00000000E+00  5.87214358E-02  0.00000000E+00  0.00000000E+00
  1.05354344E-01  0.00000000E+00  0.00000000E+00 -2.22181840E-01  0.00000000E+00
  0.00000000E+00 -4.75301942E-01  0.00000000E+00  0.00000000E+00  4.13400115E-01
  0.00000000E+00  0.00000000E+00  0.00000000E+00  0.00000000E+00  0.00000000E+00
  0.00000000E+00  0.00000000E+00  0.00000000E+00  0.00000000E+00  0.00000000E+00
  0.00000000E+00  0.00000000E+00  0.00000000E+00  0.00000000E+00 -2.22956736E+00
  0.00000000E+00  0.00000000E+00  6.29503507E-02  0.00000000E+00  0.00000000E+00
  1.07149756E-01  0.00000000E+00  0.00000000E+00 -2.01601565E-01  0.00000000E+00
  0.00000000E+00 -9.17333220E-01  0.00000000E+00  0.00000000E+00  2.88464808E+00
  0.00000000E+00  0.00000000E+00  0.00000000E+00  0.00000000E+00  0.00000000E+00
  0.00000000E+00  0.00000000E+00  0.00000000E+00  0.00000000E+00  0.00000000E+00
  0.00000000E+00  0.00000000E+00  0.00000000E+00 -2.22956736E+00  0.00000000E+00
  0.00000000E+00  6.29503507E-02  0.00000000E+00  0.00000000E+00  1.07149756E-01
  0.00000000E+00  0.00000000E+00 -2.01601565E-01  0.00000000E+00  0.00000000E+00
 -9.17333220E-01  0.00000000E+00  0.00000000E+00  2.88464808E+00  0.00000000E+00
  0.00000000E+00  0.00000000E+00  0.00000000E+00  0.00000000E+00  0.00000000E+00
  0.00000000E+00  0.00000000E+00  0.00000000E+00  0.00000000E+00  0.00000000E+00
  0.00000000E+00  0.00000000E+00 -2.22956736E+00  0.00000000E+00  0.00000000E+00
  6.29503507E-02  0.00000000E+00  0.00000000E+00  1.07149756E-01  0.00000000E+00
  0.00000000E+00 -2.01601565E-01  0.00000000E+00  0.00000000E+00 -9.17333220E-01
  0.00000000E+00  0.00000000E+00  2.88464808E+00  0.00000000E+00  0.00000000E+00
  0.00000000E+00  0.00000000E+00  0.00000000E+00  0.00000000E+00  0.00000000E+00
  0.00000000E+00  0.00000000E+00  0.00000000E+00  0.00000000E+00  0.00000000E+00
  0.00000000E+00  0.00000000E+00  0.00000000E+00  0.00000000E+00  0.00000000E+00
  0.00000000E+00  0.00000000E+00  0.00000000E+00  0.00000000E+00  0.00000000E+00
  0.00000000E+00  0.00000000E+00  0.00000000E+00  0.00000000E+00  0.00000000E+00
  0.00000000E+00  0.00000000E+00  0.00000000E+00  0.00000000E+00  0.00000000E+00
  0.00000000E+00  0.00000000E+00  0.00000000E+00  0.00000000E+00  1.00000000E+00
  0.00000000E+00  0.00000000E+00  0.00000000E+00  0.00000000E+00  0.00000000E+00
  0.00000000E+00  0.00000000E+00  0.00000000E+00  0.00000000E+00  0.00000000E+00
  0.00000000E+00  0.00000000E+00  0.00000000E+00  0.00000000E+00  0.00000000E+00
  0.00000000E+00  0.00000000E+00  0.00000000E+00  0.00000000E+00  0.00000000E+00
  0.00000000E+00  0.00000000E+00  0.00000000E+00  0.00000000E+00  0.00000000E+00
  0.00000000E+00  1.00000000E+00  0.00000000E+00  0.00000000E+00  0.00000000E+00
  0.00000000E+00  0.00000000E+00  0.00000000E+00  0.00000000E+00  0.00000000E+00
  0.00000000E+00  0.00000000E+00  0.00000000E+00  0.00000000E+00  0.00000000E+00
  0.00000000E+00  0.00000000E+00  0.00000000E+00  0.00000000E+00  0.00000000E+00
  0.00000000E+00  0.00000000E+00  0.00000000E+00  0.00000000E+00  0.00000000E+00
  0.00000000E+00  0.00000000E+00  0.00000000E+00  0.00000000E+00  0.00000000E+00
  0.00000000E+00  0.00000000E+00  1.00000000E+00  0.00000000E+00  0.00000000E+00
 -3.16888017E-16 -8.99068482E-16  1.88748297E-15  6.81428430E-15 -3.99879080E-14
  6.23886274E-14 -3.60651965E-14  0.00000000E+00  0.00000000E+00  0.00000000E+00
  0.00000000E+00  0.00000000E+00  0.00000000E+00  0.00000000E+00  0.00000000E+00
  0.00000000E+00  0.00000000E+00  0.00000000E+00  0.00000000E+00  0.00000000E+00
  0.00000000E+00  0.00000000E+00  0.00000000E+00  0.00000000E+00  0.00000000E+00
  9.98529889E-01  0.00000000E+00  0.00000000E+00 -5.42038728E-02  0.00000000E+00
 -1.55203339E-15 -4.19602096E-15  8.94423155E-15  2.55829328E-14 -1.51058789E-13
  2.20531201E-13 -1.10154716E-13  0.00000000E+00  0.00000000E+00  0.00000000E+00
  0.00000000E+00  0.00000000E+00  0.00000000E+00  0.00000000E+00  0.00000000E+00
  0.00000000E+00  0.00000000E+00  0.00000000E+00  0.00000000E+00  0.00000000E+00
  0.00000000E+00  0.00000000E+00  0.00000000E+00  0.00000000E+00  0.00000000E+00
  5.42038728E-02  0.00000000E+00  0.00000000E+00  9.98529889E-01  0.00000000E+00
 -2.41645002E-02 -6.54361727E-02  1.40714483E-01  3.96110664E-01 -2.38516333E+00
  3.58013979E+00 -1.88064265E+00  0.00000000E+00  0.00000000E+00  0.00000000E+00
  0.00000000E+00  0.00000000E+00  0.00000000E+00  0.00000000E+00  0.00000000E+00
  0.00000000E+00  0.00000000E+00  0.00000000E+00  0.00000000E+00  0.00000000E+00
  0.00000000E+00  0.00000000E+00  0.00000000E+00  0.00000000E+00  0.00000000E+00
 -2.13092120E-14  0.00000000E+00  0.00000000E+00 -6.08326181E-14  0.00000000E+00
  0.00000000E+00  0.00000000E+00  0.00000000E+00  0.00000000E+00  0.00000000E+00
  0.00000000E+00  0.00000000E+00  1.02256867E+00  0.00000000E+00  0.00000000E+00
  1.70360188E-01  0.00000000E+00  0.00000000E+00  3.75351921E-01  0.00000000E+00
  0.00000000E+00 -1.96416876E+00  0.00000000E+00  0.00000000E+00  2.64337000E+00
  0.00000000E+00  0.00000000E+00 -2.16210183E+00  0.00000000E+00  0.00000000E+00
  0.00000000E+00  0.00000000E+00  0.00000000E+00  0.00000000E+00  0.00000000E+00
  0.00000000E+00  0.00000000E+00  0.00000000E+00  0.00000000E+00  0.00000000E+00
  0.00000000E+00  0.00000000E+00  0.00000000E+00  0.00000000E+00  1.02256867E+00
  0.00000000E+00  0.00000000E+00  1.70360188E-01  0.00000000E+00  0.00000000E+00
  3.75351921E-01  0.00000000E+00  0.00000000E+00 -1.96416876E+00  0.00000000E+00
  0.00000000E+00  2.64337000E+00  0.00000000E+00  0.00000000E+00 -2.16210183E+00
  0.00000000E+00  0.00000000E+00  0.00000000E+00  0.00000000E+00  0.00000000E+00
  0.00000000E+00  0.00000000E+00  0.00000000E+00  0.00000000E+00  0.00000000E+00
  0.00000000E+00  0.00000000E+00  0.00000000E+00  1.02256867E+00  0.00000000E+00
  0.00000000E+00  1.70360188E-01  0.00000000E+00  0.00000000E+00  3.75351921E-01
  0.00000000E+00  0.00000000E+00 -1.96416876E+00  0.00000000E+00  0.00000000E+00
  2.64337000E+00  0.00000000E+00  0.00000000E+00 -2.16210183E+00  0.00000000E+00
  0.00000000E+00  0.00000000E+00  0.00000000E+00  0.00000000E+00  0.00000000E+00
  1.11219594E-01  4.16273345E-01 -2.35373058E+00  2.68474778E+00 -1.63916481E+00
  1.17936684E+00 -3.89048408E-01  0.00000000E+00  0.00000000E+00  0.00000000E+00
  0.00000000E+00  0.00000000E+00  0.00000000E+00  0.00000000E+00  0.00000000E+00
  0.00000000E+00  0.00000000E+00  0.00000000E+00  0.00000000E+00  0.00000000E+00
  0.00000000E+00  0.00000000E+00  0.00000000E+00  0.00000000E+00  0.00000000E+00
  7.41156264E-17  0.00000000E+00  0.00000000E+00  1.20061667E-16  0.00000000E+00
  0.00000000E+00  0.00000000E+00  0.00000000E+00  0.00000000E+00  0.00000000E+00
  0.00000000E+00  0.00000000E+00  0.00000000E+00  2.25990011E-01  0.00000000E+00
  0.00000000E+00 -1.19096985E+00  0.00000000E+00  0.00000000E+00  1.37487423E+00
  0.00000000E+00  0.00000000E+00 -1.03360966E+00  0.00000000E+00  0.00000000E+00
  7.66044173E-01  0.00000000E+00  0.00000000E+00 -4.95668544E-01  0.00000000E+00
  0.00000000E+00  0.00000000E+00  0.00000000E+00  0.00000000E+00  0.00000000E+00
  0.00000000E+00  0.00000000E+00  0.00000000E+00  0.00000000E+00  0.00000000E+00
  0.00000000E+00  0.00000000E+00  2.25990011E-01  0.00000000E+00  0.00000000E+00
 -1.19096985E+00  0.00000000E+00  0.00000000E+00  1.37487423E+00  0.00000000E+00
  0.00000000E+00 -1.03360966E+00  0.00000000E+00  0.00000000E+00  7.66044173E-01
  0.00000000E+00  0.00000000E+00 -4.95668544E-01  0.00000000E+00  0.00000000E+00
  0.00000000E+00  0.00000000E+00  0.00000000E+00  0.00000000E+00  0.00000000E+00
  0.00000000E+00  0.00000000E+00  0.00000000E+00  0.00000000E+00  0.00000000E+00
  0.00000000E+00  0.00000000E+00  0.00000000E+00  0.00000000E+00  2.25990011E-01
  0.00000000E+00  0.00000000E+00 -1.19096985E+00  0.00000000E+00  0.00000000E+00
  1.37487423E+00  0.00000000E+00  0.00000000E+00 -1.03360966E+00  0.00000000E+00
  0.00000000E+00  7.66044173E-01  0.00000000E+00  0.00000000E+00 -4.95668544E-01
  0.00000000E+00  0.00000000E+00  0.00000000E+00  0.00000000E+00  0.00000000E+00
 -1.54884579E+00  1.85522994E+00 -1.23439845E+00  7.73865729E-01 -3.30664790E-01
  2.30140027E-01 -7.57229045E-02  0.00000000E+00  0.00000000E+00  0.00000000E+00
  0.00000000E+00  0.00000000E+00  0.00000000E+00  0.00000000E+00  0.00000000E+00
  0.00000000E+00  0.00000000E+00  0.00000000E+00  0.00000000E+00  0.00000000E+00
  0.00000000E+00  0.00000000E+00  0.00000000E+00  0.00000000E+00  0.00000000E+00
 -1.50480351E-17  0.00000000E+00  0.00000000E+00  1.57773460E-17  0.00000000E+00
Orthonormal basis                          R   N=         900
  9.86035426E-02  1.54831763E-01  2.27786596E-01  2.55905416E-01  2.70648809E-01
  2.51832360E-01  1.97403459E-01  0.00000000E+00  0.00000000E+00  0.00000000E+00
  0.00000000E+00  0.00000000E+00  0.00000000E+00  0.00000000E+00  0.00000000E+00
  0.00000000E+00  0.00000000E+00  0.00000000E+00  0.00000000E+00  0.00000000E+00
  0.00000000E+00  0.00000000E+00  0.00000000E+00  0.00000000E+00  0.00000000E+00
 -2.59375937E-21  0.00000000E+00  0.00000000E+00  2.59375937E-21  0.00000000E+00
  3.25804784E-01  3.72912160E-01  2.41841006E-01  1.07807405E-01 -1.80463415E-01
 -2.77247484E-01 -2.72936934E-01  0.00000000E+00  0.00000000E+00  0.00000000E+00
  0.00000000E+00  0.00000000E+00  0.00000000E+00  0.00000000E+00  0.00000000E+00
  0.00000000E+00  0.00000000E+00  0.00000000E+00  0.00000000E+00  0.00000000E+00
  0.00000000E+00  0.00000000E+00  0.00000000E+00  0.00000000E+00  0.00000000E+00
 -1.76089824E-20  0.00000000E+00  0.00000000E+00  1.76089824E-20  0.00000000E+00
  5.23977079E-01  2.88135130E-01 -3.71008149E-01 -4.53263542E-01 -5.44395661E-02
  2.12546958E-01  3.31466400E-01  0.00000000E+00  0.00000000E+00  0.00000000E+00
  0.00000000E+00  0.00000000E+00  0.00000000E+00  0.00000000E+00  0.00000000E+00
  0.00000000E+00  0.00000000E+00  0.00000000E+00  0.00000000E+00  0.00000000E+00
  0.00000000E+00  0.00000000E+00  0.00000000E+00  0.00000000E+00  0.00000000E+00
 -1.66530892E-19  0.00000000E+00  0.00000000E+00  1.66530892E-19  0.00000000E+00
 -7.43436904E-19  1.90290031E-18 -6.19469974E-18  7.52558692E-18 -9.48878903E-18
  1.07804094E-17 -3.61808372E-18  0.00000000E+00  0.00000000E+00  0.00000000E+00
  0.00000000E+00  0.00000000E+00  0.00000000E+00  0.00000000E+00  0.00000000E+00
  0.00000000E+00  0.00000000E+00  0.00000000E+00  0.00000000E+00  0.00000000E+00
  0.00000000E+00  0.00000000E+00  0.00000000E+00  0.00000000E+00  0.00000000E+00
  7.07106781E-01  0.00000000E+00  0.00000000E+00 -7.07106781E-01  0.00000000E+00
 -3.83437742E-31  8.80952799E-31 -2.76353072E-30  4.18691891E-30 -6.85651353E-30
  8.37825040E-30 -4.02606196E-30  0.00000000E+00  0.00000000E+00  0.00000000E+00
  0.00000000E+00  0.00000000E+00  0.00000000E+00  0.00000000E+00  0.00000000E+00
  0.00000000E+00  0.00000000E+00  0.00000000E+00  0.00000000E+00  0.00000000E+00
  0.00000000E+00  0.00000000E+00  0.00000000E+00  0.00000000E+00  0.00000000E+00
  7.07106781E-01  0.00000000E+00  0.00000000E+00  7.07106781E-01  0.00000000E+00
 -4.69578614E-01  2.38380961E-01  5.69166072E-01 -1.26685493E-01 -9.01055669E-01
 -9.53402510E-02  9.12059376E-01  0.00000000E+00  0.00000000E+00  0.00000000E+00
  0.00000000E+00  0.00000000E+00  0.00000000E+00  0.00000000E+00  0.00000000E+00
  0.00000000E+00  0.00000000E+00  0.00000000E+00  0.00000000E+00  0.00000000E+00
  0.00000000E+00  0.00000000E+00  0.00000000E+00  0.00000000E+00  0.00000000E+00
 -1.45290212E-19  0.00000000E+00  0.00000000E+00  1.45290212E-19  0.00000000E+00
 -1.15709681E+00  1.31150802E+00  8.04242245E-02 -8.71511800E-01  4.86378865E-01
  3.97531133E-01 -5.87696332E-01  0.00000000E+00  0.00000000E+00  0.00000000E+00
  0.00000000E+00  0.00000000E+00  0.00000000E+00  0.00000000E+00  0.00000000E+00
  0.00000000E+00  0.00000000E+00  0.00000000E+00  0.00000000E+00  0.00000000E+00
  0.00000000E+00  0.00000000E+00  0.00000000E+00  0.00000000E+00  0.00000000E+00
  3.54537726E-18  0.00000000E+00  0.00000000E+00 -3.54537726E-18  0.00000000E+00
  7.45084569E-01 -1.30591831E+00  2.04173567E+00 -1.61531612E+00 -3.96158083E-01
  1.52019001E+00 -1.00603882E+00  0.00000000E+00  0.00000000E+00  0.00000000E+00
  0.00000000E+00  0.00000000E+00  0.00000000E+00  0.00000000E+00  0.00000000E+00
  0.00000000E+00  0.00000000E+00  0.00000000E+00  0.00000000E+00  0.00000000E+00
  0.00000000E+00  0.00000000E+00  0.00000000E+00  0.00000000E+00  0.00000000E+00
  1.05698607E-20  0.00000000E+00  0.00000000E+00 -1.05698607E-20  0.00000000E+00
 -3.11175044E-01  6.44016771E-01 -1.64163786E+00  2.19696445E+00 -2.97841155E+00
  3.42073301E+00 -1.58381734E+00  0.00000000E+00  0.00000000E+00  0.00000000E+00
  0.00000000E+00  0.00000000E+00  0.00000000E+00  0.00000000E+00  0.00000000E+00
  0.00000000E+00  0.00000000E+00  0.00000000E+00  0.00000000E+00  0.00000000E+00
  0.00000000E+00  0.00000000E+00  0.00000000E+00  0.00000000E+00  0.00000000E+00
 -8.10173094E-17  0.00000000E+00  0.00000000E+00  8.10173094E-17  0.00000000E+00
  0.00000000E+00  0.00000000E+00  0.00000000E+00  0.00000000E+00  0.00000000E+00
  0.00000000E+00  0.00000000E+00  0.00000000E+00  0.00000000E+00  0.00000000E+00
  0.00000000E+00  0.00000000E+00  0.00000000E+00  0.00000000E+00  0.00000000E+00